Program Version,EnergyPlus, Version 23.2.0-7636e6b3e9, YMD=2025.01.12 00:20
1,5,Environment Title[],Latitude[deg],Longitude[deg],Time Zone[],Elevation[m]
2,8,Day of Simulation[],Month[],Day of Month[],DST Indicator[1=yes 0=no],Hour[],StartMinute[],EndMinute[],DayType
3,5,Cumulative Day of Simulation[],Month[],Day of Month[],DST Indicator[1=yes 0=no],DayType  ! When Daily Report Variables Requested
4,2,Cumulative Days of Simulation[],Month[]  ! When Monthly Report Variables Requested
5,1,Cumulative Days of Simulation[] ! When Run Period Report Variables Requested
6,1,Calendar Year of Simulation[] ! When Annual Report Variables Requested
7,7,Environment,Site Outdoor Air Drybulb Temperature [C] !Daily [Value,Min,Hour,Minute,Max,Hour,Minute]
8,7,Environment,Site Outdoor Air Dewpoint Temperature [C] !Daily [Value,Min,Hour,Minute,Max,Hour,Minute]
9,7,Environment,Site Outdoor Air Wetbulb Temperature [C] !Daily [Value,Min,Hour,Minute,Max,Hour,Minute]
10,7,Environment,Site Diffuse Solar Radiation Rate per Area [W/m2] !Daily [Value,Min,Hour,Minute,Max,Hour,Minute]
11,7,Environment,Site Direct Solar Radiation Rate per Area [W/m2] !Daily [Value,Min,Hour,Minute,Max,Hour,Minute]
12,7,Environment,Site Solar Azimuth Angle [deg] !Daily [Value,Min,Hour,Minute,Max,Hour,Minute]
13,7,Environment,Site Solar Altitude Angle [deg] !Daily [Value,Min,Hour,Minute,Max,Hour,Minute]
1790,7,MYDHW_1_WATERHEATER,Water Heater Heating Energy [J] !Daily [Value,Min,Hour,Minute,Max,Hour,Minute]
804,1,Heating:EnergyTransfer [J] !Hourly
853,1,Cooling:EnergyTransfer [J] !Hourly
16,1,Electricity:Facility [J] !Hourly
End of Data Dictionary
1,RUN PERIOD 1,  52.46,   5.52,   1.00,  -3.90
2,1, 1, 1, 0, 1, 0.00,60.00,Tuesday
16,4566240.878071144
804,3488869.9463480385
853,0.0
2,1, 1, 1, 0, 2, 0.00,60.00,Tuesday
16,4566240.878071144
804,3861041.374057121
853,0.0
2,1, 1, 1, 0, 3, 0.00,60.00,Tuesday
16,4566240.878071144
804,4191126.362426427
853,0.0
2,1, 1, 1, 0, 4, 0.00,60.00,Tuesday
16,7220699.114133755
804,4553247.499913739
853,0.0
2,1, 1, 1, 0, 5, 0.00,60.00,Tuesday
16,4566240.878071144
804,4871088.367115709
853,0.0
2,1, 1, 1, 0, 6, 0.00,60.00,Tuesday
16,4566240.878071144
804,5188502.834530571
853,0.0
2,1, 1, 1, 0, 7, 0.00,60.00,Tuesday
16,7767822.485814117
804,5415863.878508008
853,0.0
2,1, 1, 1, 0, 8, 0.00,60.00,Tuesday
16,7767176.781317075
804,30533486.616152626
853,0.0
2,1, 1, 1, 0, 9, 0.00,60.00,Tuesday
16,11840162.197258614
804,26218183.451468676
853,0.0
2,1, 1, 1, 0,10, 0.00,60.00,Tuesday
16,8202949.20348654
804,23560975.25069152
853,0.0
2,1, 1, 1, 0,11, 0.00,60.00,Tuesday
16,7375654.870340777
804,21641445.945387974
853,0.0
2,1, 1, 1, 0,12, 0.00,60.00,Tuesday
16,4566240.878071144
804,20451904.49660652
853,0.0
2,1, 1, 1, 0,13, 0.00,60.00,Tuesday
16,7375717.3733161185
804,19723410.601375222
853,0.0
2,1, 1, 1, 0,14, 0.00,60.00,Tuesday
16,4566240.878071144
804,19255301.44623564
853,0.0
2,1, 1, 1, 0,15, 0.00,60.00,Tuesday
16,7375741.158512669
804,18590347.65759664
853,0.0
2,1, 1, 1, 0,16, 0.00,60.00,Tuesday
16,7375764.907205295
804,18760634.64952623
853,0.0
2,1, 1, 1, 0,17, 0.00,60.00,Tuesday
16,4566240.878071144
804,20123150.09710925
853,0.0
2,1, 1, 1, 0,18, 0.00,60.00,Tuesday
16,7843937.132860399
804,20190940.697556373
853,0.0
2,1, 1, 1, 0,19, 0.00,60.00,Tuesday
16,8781010.000595238
804,19782728.501424834
853,0.0
2,1, 1, 1, 0,20, 0.00,60.00,Tuesday
16,10180946.004481532
804,331525.72817084176
853,0.0
2,1, 1, 1, 0,21, 0.00,60.00,Tuesday
16,7845781.47116727
804,1947838.6364270477
853,0.0
2,1, 1, 1, 0,22, 0.00,60.00,Tuesday
16,7767665.277511345
804,2610032.6647938993
853,0.0
2,1, 1, 1, 0,23, 0.00,60.00,Tuesday
16,7767982.560624605
804,3014390.3284756313
853,0.0
2,1, 1, 1, 0,24, 0.00,60.00,Tuesday
16,7767211.596572567
804,3156051.5821789214
853,0.0
3,1, 1, 1, 0,Tuesday
7,2.891666666666666,1.4,16,60,4.2, 1,60
8,-0.03749999999999998,-2.5,10,60,2.1,24,60
9,1.854739388525906,0.4001495373206364,13,60,3.0998073170807516, 1,60
10,17.307291666666668,0.0, 1,15,86.0,12,30
11,26.854166666666668,0.0, 1,15,152.0,10,30
12,171.9210012821981,1.7466514206994332, 1,45,341.00180793165543,24,60
13,-20.325946072972584,-60.625898049216175, 1,45,14.446671545683287,13,45
1790,51476731.277453646,0.0, 1,15,3273406.7332569524, 9,60
2,2, 1, 2, 0, 1, 0.00,60.00,Wednesday
16,4566240.878071144
804,3942690.8015231364
853,0.0
2,2, 1, 2, 0, 2, 0.00,60.00,Wednesday
16,7220901.411440032
804,4383427.832326341
853,0.0
2,2, 1, 2, 0, 3, 0.00,60.00,Wednesday
16,4566240.878071144
804,4594771.526549605
853,0.0
2,2, 1, 2, 0, 4, 0.00,60.00,Wednesday
16,4566240.878071144
804,5023858.448584054
853,0.0
2,2, 1, 2, 0, 5, 0.00,60.00,Wednesday
16,4566240.878071144
804,5134974.919255783
853,0.0
2,2, 1, 2, 0, 6, 0.00,60.00,Wednesday
16,7220479.448025311
804,5233461.7972378945
853,0.0
2,2, 1, 2, 0, 7, 0.00,60.00,Wednesday
16,7767470.094071257
804,5386146.301849076
853,0.0
2,2, 1, 2, 0, 8, 0.00,60.00,Wednesday
16,7768061.945067976
804,30042745.37088592
853,0.0
2,2, 1, 2, 0, 9, 0.00,60.00,Wednesday
16,8203086.5802777
804,25156353.907092605
853,0.0
2,2, 1, 2, 0,10, 0.00,60.00,Wednesday
16,11840043.423359653
804,22345289.680694457
853,0.0
2,2, 1, 2, 0,11, 0.00,60.00,Wednesday
16,4566240.878071144
804,20011294.26028727
853,0.0
2,2, 1, 2, 0,12, 0.00,60.00,Wednesday
16,7375343.744810908
804,18532420.400388263
853,0.0
2,2, 1, 2, 0,13, 0.00,60.00,Wednesday
16,4566240.878071144
804,17119462.069112204
853,0.0
2,2, 1, 2, 0,14, 0.00,60.00,Wednesday
16,7375518.060721619
804,14962217.460837558
853,0.0
2,2, 1, 2, 0,15, 0.00,60.00,Wednesday
16,7375702.273383185
804,12414365.23740846
853,0.0
2,2, 1, 2, 0,16, 0.00,60.00,Wednesday
16,4566240.878071144
804,12950250.491568035
853,0.0
2,2, 1, 2, 0,17, 0.00,60.00,Wednesday
16,7375726.0817674305
804,15631988.657673886
853,0.0
2,2, 1, 2, 0,18, 0.00,60.00,Wednesday
16,7844188.0936226975
804,16508434.490960006
853,0.0
2,2, 1, 2, 0,19, 0.00,60.00,Wednesday
16,7843478.452074323
804,17013781.337542143
853,0.0
2,2, 1, 2, 0,20, 0.00,60.00,Wednesday
16,7843282.6643712735
804,22976.31196207568
853,0.0
2,2, 1, 2, 0,21, 0.00,60.00,Wednesday
16,7862538.891964898
804,763485.4041808778
853,0.0
2,2, 1, 2, 0,22, 0.00,60.00,Wednesday
16,9173996.116167217
804,1696301.3265207065
853,0.0
2,2, 1, 2, 0,23, 0.00,60.00,Wednesday
16,9173642.73820959
804,2399402.444163396
853,0.0
2,2, 1, 2, 0,24, 0.00,60.00,Wednesday
16,8138722.312008305
804,2999646.858501756
853,0.0
3,2, 1, 2, 0,Wednesday
7,3.686458333333334,2.7,19,60,4.7,15,60
8,0.859375,-2.5,24,60,3.0, 8,60
9,2.7411140405471186,1.1746816380023941, 1,60,3.8128607493951674, 8,60
10,16.630208333333332,0.0, 1,15,76.0,12,30
11,62.854166666666664,0.0, 1,15,310.0,15,30
12,171.8131188905313,1.5259563868488346, 1,45,340.83120702053344,24,60
13,-20.25473323294449,-60.545572589949266, 1,45,14.530053212951353,13,45
1790,53798478.66372053,0.0, 1,15,3273420.038210328,10,15
2,3, 1, 3, 0, 1, 0.00,60.00,Thursday
16,4566240.878071144
804,3342218.987561066
853,0.0
2,3, 1, 3, 0, 2, 0.00,60.00,Thursday
16,4566240.878071144
804,3628674.8954168144
853,0.0
2,3, 1, 3, 0, 3, 0.00,60.00,Thursday
16,4566240.878071144
804,3791946.249592825
853,0.0
2,3, 1, 3, 0, 4, 0.00,60.00,Thursday
16,7220380.54892491
804,4115703.0727357655
853,0.0
2,3, 1, 3, 0, 5, 0.00,60.00,Thursday
16,4566240.878071144
804,4377479.847010934
853,0.0
2,3, 1, 3, 0, 6, 0.00,60.00,Thursday
16,4566240.878071144
804,4770280.861803858
853,0.0
2,3, 1, 3, 0, 7, 0.00,60.00,Thursday
16,7767248.055022609
804,5298131.2316743415
853,0.0
2,3, 1, 3, 0, 8, 0.00,60.00,Thursday
16,7766958.248588724
804,30619344.620695252
853,21454.117077887102
2,3, 1, 3, 0, 9, 0.00,60.00,Thursday
16,11840022.495509885
804,25833922.446581014
853,0.0
2,3, 1, 3, 0,10, 0.00,60.00,Thursday
16,8202493.566106837
804,22816687.975315206
853,0.0
2,3, 1, 3, 0,11, 0.00,60.00,Thursday
16,7375291.220570305
804,20050967.61121554
853,0.0
2,3, 1, 3, 0,12, 0.00,60.00,Thursday
16,4566240.878071144
804,18058205.373036876
853,0.0
2,3, 1, 3, 0,13, 0.00,60.00,Thursday
16,7375186.760812883
804,16843369.346903272
853,0.0
2,3, 1, 3, 0,14, 0.00,60.00,Thursday
16,5876904.230491449
804,14488473.701204557
853,0.0
2,3, 1, 3, 0,15, 0.00,60.00,Thursday
16,6064469.460983397
804,11642271.420795446
853,0.0
2,3, 1, 3, 0,16, 0.00,60.00,Thursday
16,7375129.417247423
804,13041099.14907042
853,0.0
2,3, 1, 3, 0,17, 0.00,60.00,Thursday
16,4566240.878071144
804,17073671.837358322
853,0.0
2,3, 1, 3, 0,18, 0.00,60.00,Thursday
16,7843483.147436
804,18378934.019240476
853,0.0
2,3, 1, 3, 0,19, 0.00,60.00,Thursday
16,9722853.80552679
804,18891973.31938666
853,0.0
2,3, 1, 3, 0,20, 0.00,60.00,Thursday
16,9242074.877210502
804,305595.9695672616
853,0.0
2,3, 1, 3, 0,21, 0.00,60.00,Thursday
16,7843559.9297836125
804,2150169.2662649336
853,0.0
2,3, 1, 3, 0,22, 0.00,60.00,Thursday
16,7768044.414171283
804,3288089.3675535214
853,0.0
2,3, 1, 3, 0,23, 0.00,60.00,Thursday
16,7767299.714534149
804,3812357.110048727
853,0.0
2,3, 1, 3, 0,24, 0.00,60.00,Thursday
16,7767419.750290498
804,4063217.7774368324
853,0.0
3,3, 1, 3, 0,Thursday
7,1.1666666666666665,-1.0,19,60,2.775, 1,15
8,-0.6007504992247794,-2.2,13,60,1.3,24,60
9,0.3890060654580482,-1.321738782587282,19,60,2.1129291271731074, 1,15
10,14.333333333333334,0.0, 1,15,65.0,13,30
11,122.921875,0.0, 1,15,558.0,13,30
12,171.70635220439564,1.3083254005832814, 1,45,340.6669445746221,24,60
13,-20.176959693862347,-60.45738645598138, 1,45,14.6208584194948,13,45
1790,51473452.24440163,0.0, 1,15,3273432.107984981, 9,15
2,4, 1, 4, 0, 1, 0.00,60.00,Friday
16,4566240.878071144
804,4819326.731023283
853,0.0
2,4, 1, 4, 0, 2, 0.00,60.00,Friday
16,7220926.321593072
804,5522165.029721436
853,0.0
2,4, 1, 4, 0, 3, 0.00,60.00,Friday
16,4566240.878071144
804,5934756.95815895
853,0.0
2,4, 1, 4, 0, 4, 0.00,60.00,Friday
16,4566240.878071144
804,6345210.201683108
853,0.0
2,4, 1, 4, 0, 5, 0.00,60.00,Friday
16,5965539.789712233
804,6939187.804396917
853,0.0
2,4, 1, 4, 0, 6, 0.00,60.00,Friday
16,5821044.855578151
804,7447221.988292861
853,0.0
2,4, 1, 4, 0, 7, 0.00,60.00,Friday
16,7767986.356559362
804,7889403.956884997
853,0.0
2,4, 1, 4, 0, 8, 0.00,60.00,Friday
16,7767426.989489345
804,32215926.44872645
853,0.0
2,4, 1, 4, 0, 9, 0.00,60.00,Friday
16,8799365.489834841
804,29199759.135911465
853,0.0
2,4, 1, 4, 0,10, 0.00,60.00,Friday
16,11243108.485489175
804,25791357.684317864
853,0.0
2,4, 1, 4, 0,11, 0.00,60.00,Friday
16,4566240.878071144
804,22975730.49485584
853,0.0
2,4, 1, 4, 0,12, 0.00,60.00,Friday
16,7375573.707896141
804,20873417.746480167
853,0.0
2,4, 1, 4, 0,13, 0.00,60.00,Friday
16,5132994.655678328
804,19393302.68181945
853,0.0
2,4, 1, 4, 0,14, 0.00,60.00,Friday
16,6808632.231093768
804,16806939.524380278
853,0.0
2,4, 1, 4, 0,15, 0.00,60.00,Friday
16,7375248.786067429
804,13828143.528463323
853,0.0
2,4, 1, 4, 0,16, 0.00,60.00,Friday
16,4566240.878071144
804,15157073.296130605
853,0.0
2,4, 1, 4, 0,17, 0.00,60.00,Friday
16,7375162.061761092
804,19233943.020520583
853,0.0
2,4, 1, 4, 0,18, 0.00,60.00,Friday
16,7844326.461123166
804,20483155.956275545
853,0.0
2,4, 1, 4, 0,19, 0.00,60.00,Friday
16,7843583.168817726
804,20923769.669052467
853,0.0
2,4, 1, 4, 0,20, 0.00,60.00,Friday
16,7843254.161629878
804,1276563.7900533266
853,0.0
2,4, 1, 4, 0,21, 0.00,60.00,Friday
16,8803316.500714969
804,4481616.027323904
853,0.0
2,4, 1, 4, 0,22, 0.00,60.00,Friday
16,9173592.856939152
804,5660181.031248722
853,0.0
2,4, 1, 4, 0,23, 0.00,60.00,Friday
16,8625287.236756478
804,6542707.605593143
853,0.0
2,4, 1, 4, 0,24, 0.00,60.00,Friday
16,7767383.415345793
804,7152365.010656581
853,0.0
3,4, 1, 4, 0,Friday
7,-2.370833333333333,-5.0,23,60,0.5999999999999999, 1,15
8,-3.617708333333334,-7.7,24,60,0.3750000000000001, 1,15
9,-2.8442852708335775,-5.828734757976214,24,60,0.4861570244684519, 1,15
10,14.375,0.0, 1,15,66.0,13,30
11,129.13541666666666,0.0, 1,15,576.0,13,30
12,171.60081020210077,1.0940828941618326, 1,45,340.50922888156305,24,60
13,-20.09265613455602,-60.36138875158809, 1,45,14.71905019080346,13,45
1790,53815659.163855515,0.0, 1,15,3273445.6027500574, 9,30
2,5, 1, 5, 0, 1, 0.00,60.00,Saturday
16,4566240.878071144
804,7480090.375963697
853,0.0
2,5, 1, 5, 0, 2, 0.00,60.00,Saturday
16,4566240.878071144
804,7860218.349769778
853,0.0
2,5, 1, 5, 0, 3, 0.00,60.00,Saturday
16,5749652.893413956
804,8391005.358823523
853,0.0
2,5, 1, 5, 0, 4, 0.00,60.00,Saturday
16,6036941.362956442
804,8889422.749393173
853,0.0
2,5, 1, 5, 0, 5, 0.00,60.00,Saturday
16,4566240.878071144
804,9317113.163917685
853,0.0
2,5, 1, 5, 0, 6, 0.00,60.00,Saturday
16,4566240.878071144
804,9748853.75233019
853,0.0
2,5, 1, 5, 0, 7, 0.00,60.00,Saturday
16,7767286.051121738
804,10153578.60294671
853,0.0
2,5, 1, 5, 0, 8, 0.00,60.00,Saturday
16,8584442.393916292
804,35929545.60207528
853,0.0
2,5, 1, 5, 0, 9, 0.00,60.00,Saturday
16,10912651.020891853
804,32595666.0962597
853,0.0
2,5, 1, 5, 0,10, 0.00,60.00,Saturday
16,8202352.4214307
804,29265694.62479228
853,0.0
2,5, 1, 5, 0,11, 0.00,60.00,Saturday
16,7375787.732072104
804,26624207.97633598
853,0.0
2,5, 1, 5, 0,12, 0.00,60.00,Saturday
16,4566240.878071144
804,24660004.8354206
853,0.0
2,5, 1, 5, 0,13, 0.00,60.00,Saturday
16,7375811.409358919
804,23282572.455558203
853,0.0
2,5, 1, 5, 0,14, 0.00,60.00,Saturday
16,7375631.593596504
804,20509293.262100667
853,0.0
2,5, 1, 5, 0,15, 0.00,60.00,Saturday
16,4566240.878071144
804,17469491.625365887
853,0.0
2,5, 1, 5, 0,16, 0.00,60.00,Saturday
16,7375430.590883653
804,18621357.616933696
853,0.0
2,5, 1, 5, 0,17, 0.00,60.00,Saturday
16,4566240.878071144
804,21954375.37637061
853,0.0
2,5, 1, 5, 0,18, 0.00,60.00,Saturday
16,8714397.638499271
804,22802600.582000434
853,0.0
2,5, 1, 5, 0,19, 0.00,60.00,Saturday
16,10181038.947657933
804,22790185.60507775
853,0.0
2,5, 1, 5, 0,20, 0.00,60.00,Saturday
16,7913573.269792783
804,1743139.1196805402
853,0.0
2,5, 1, 5, 0,21, 0.00,60.00,Saturday
16,7844259.641761322
804,4628927.896106118
853,0.0
2,5, 1, 5, 0,22, 0.00,60.00,Saturday
16,7767286.311251611
804,5456906.657116495
853,0.0
2,5, 1, 5, 0,23, 0.00,60.00,Saturday
16,7767440.891353918
804,5968699.471334759
853,0.0
2,5, 1, 5, 0,24, 0.00,60.00,Saturday
16,7768051.677710062
804,6430874.287738295
853,0.0
3,5, 1, 5, 0,Saturday
7,-4.088541666666665,-5.5, 7,60,-2.8,13,60
8,-7.080208333333332,-7.45, 1,15,-6.7, 1,60
9,-5.141229228510597,-6.135298049949361, 7,60,-4.298956651781032,13,60
10,14.5703125,0.0, 1,15,65.0,13,30
11,132.4921875,0.0, 1,15,603.0,13,30
12,171.49660012976298,0.8835410953785034, 1,45,340.35825202416595,24,60
13,-20.001856138640335,-60.257633494339274, 1,45,14.82458830946985,13,45
1790,51377346.82841364,0.0, 1,15,2950216.88732116,21,45
2,6, 1, 6, 0, 1, 0.00,60.00,Sunday
16,6799917.6533886455
804,6867785.438930286
853,0.0
2,6, 1, 6, 0, 2, 0.00,60.00,Sunday
16,4986914.130170771
804,7281263.299468851
853,0.0
2,6, 1, 6, 0, 3, 0.00,60.00,Sunday
16,4566240.878071144
804,7636213.566012705
853,0.0
2,6, 1, 6, 0, 4, 0.00,60.00,Sunday
16,4566240.878071144
804,7913663.17179869
853,0.0
2,6, 1, 6, 0, 5, 0.00,60.00,Sunday
16,7220939.825390602
804,8173307.355831304
853,0.0
2,6, 1, 6, 0, 6, 0.00,60.00,Sunday
16,4566240.878071144
804,8390147.581767319
853,0.0
2,6, 1, 6, 0, 7, 0.00,60.00,Sunday
16,7767403.422852457
804,8599607.389643747
853,0.0
2,6, 1, 6, 0, 8, 0.00,60.00,Sunday
16,7767311.216617039
804,33517988.061887477
853,0.0
2,6, 1, 6, 0, 9, 0.00,60.00,Sunday
16,9793166.264775693
804,30379175.900907923
853,0.0
2,6, 1, 6, 0,10, 0.00,60.00,Sunday
16,10247901.331813611
804,27581910.863483846
853,0.0
2,6, 1, 6, 0,11, 0.00,60.00,Sunday
16,4566240.878071144
804,25245065.919988412
853,0.0
2,6, 1, 6, 0,12, 0.00,60.00,Sunday
16,7375748.8139897855
804,23325192.850301825
853,0.0
2,6, 1, 6, 0,13, 0.00,60.00,Sunday
16,7375772.549750391
804,22193076.18765525
853,0.0
2,6, 1, 6, 0,14, 0.00,60.00,Sunday
16,4566240.878071144
804,21447762.681498356
853,0.0
2,6, 1, 6, 0,15, 0.00,60.00,Sunday
16,7375796.251489542
804,20755491.176589
853,0.0
2,6, 1, 6, 0,16, 0.00,60.00,Sunday
16,4566240.878071144
804,20885140.629726518
853,0.0
2,6, 1, 6, 0,17, 0.00,60.00,Sunday
16,7375786.824231053
804,21309168.471940927
853,0.0
2,6, 1, 6, 0,18, 0.00,60.00,Sunday
16,7843491.024432723
804,21023853.702363566
853,0.0
2,6, 1, 6, 0,19, 0.00,60.00,Sunday
16,7844274.445725256
804,20554590.72581861
853,0.0
2,6, 1, 6, 0,20, 0.00,60.00,Sunday
16,7843251.291993397
804,535799.0854796103
853,0.0
2,6, 1, 6, 0,21, 0.00,60.00,Sunday
16,10136065.9441406
804,2901463.4493969195
853,0.0
2,6, 1, 6, 0,22, 0.00,60.00,Sunday
16,8730233.179292059
804,3827385.1289246487
853,0.0
2,6, 1, 6, 0,23, 0.00,60.00,Sunday
16,7767436.658820681
804,4282039.130004042
853,0.0
2,6, 1, 6, 0,24, 0.00,60.00,Sunday
16,7767289.181971828
804,4661820.242346802
853,0.0
3,6, 1, 6, 0,Sunday
7,-3.4229166666666675,-4.6, 7,60,-2.4,19,60
8,-4.572395833333333,-7.1, 1,15,-3.0,24,60
9,-3.8650041755420497,-4.887844760743663, 2,60,-2.6504321491632616,24,60
10,16.927083333333332,0.0, 1,15,89.0,12,30
11,4.8203125,0.0, 1,15,29.0,15,30
12,171.39382734271808,0.676999179191866, 1,45,340.21418969258576,24,60
13,-19.90459616452433,-60.14617945944964, 1,45,14.937429352245028,13,45
1790,53843727.785008974,0.0, 1,15,2950320.493204977,21,15
2,7, 1, 7, 0, 1, 0.00,60.00,Monday
16,4566240.878071144
804,5051645.858394906
853,0.0
2,7, 1, 7, 0, 2, 0.00,60.00,Monday
16,4566240.878071144
804,5552368.465810727
853,0.0
2,7, 1, 7, 0, 3, 0.00,60.00,Monday
16,7220905.746551424
804,6300155.920812203
853,0.0
2,7, 1, 7, 0, 4, 0.00,60.00,Monday
16,4566240.878071144
804,7159449.079171903
853,0.0
2,7, 1, 7, 0, 5, 0.00,60.00,Monday
16,4566240.878071144
804,8215112.564431693
853,0.0
2,7, 1, 7, 0, 6, 0.00,60.00,Monday
16,4566240.878071144
804,9062724.518394116
853,0.0
2,7, 1, 7, 0, 7, 0.00,60.00,Monday
16,8469956.145398818
804,9931156.325216178
853,0.0
2,7, 1, 7, 0, 8, 0.00,60.00,Monday
16,9174841.931744507
804,35562367.7937483
853,0.0
2,7, 1, 7, 0, 9, 0.00,60.00,Monday
16,9444983.237228043
804,31892598.057555534
853,0.0
2,7, 1, 7, 0,10, 0.00,60.00,Monday
16,8221002.27159141
804,28401245.847795267
853,0.0
2,7, 1, 7, 0,11, 0.00,60.00,Monday
16,7361963.162108414
804,25416719.584659696
853,0.0
2,7, 1, 7, 0,12, 0.00,60.00,Monday
16,7375567.501572631
804,22963180.018719815
853,0.0
2,7, 1, 7, 0,13, 0.00,60.00,Monday
16,4566240.878071144
804,21268900.712086294
853,0.0
2,7, 1, 7, 0,14, 0.00,60.00,Monday
16,7375381.278470021
804,18872315.748948596
853,0.0
2,7, 1, 7, 0,15, 0.00,60.00,Monday
16,4566240.878071144
804,16721162.863639645
853,0.0
2,7, 1, 7, 0,16, 0.00,60.00,Monday
16,7375245.5324994195
804,17732504.58869188
853,0.0
2,7, 1, 7, 0,17, 0.00,60.00,Monday
16,5702811.239540474
804,20795021.967224035
853,0.0
2,7, 1, 7, 0,18, 0.00,60.00,Monday
16,9798587.180982018
804,21468662.026431132
853,0.0
2,7, 1, 7, 0,19, 0.00,60.00,Monday
16,7843453.386144189
804,21375440.667734988
853,0.0
2,7, 1, 7, 0,20, 0.00,60.00,Monday
16,7843417.81158859
804,1000745.7697666758
853,0.0
2,7, 1, 7, 0,21, 0.00,60.00,Monday
16,7843525.536468819
804,3571577.347241408
853,0.0
2,7, 1, 7, 0,22, 0.00,60.00,Monday
16,7768097.171758068
804,4429886.80917507
853,0.0
2,7, 1, 7, 0,23, 0.00,60.00,Monday
16,7767229.3268385045
804,4988633.848052929
853,0.0
2,7, 1, 7, 0,24, 0.00,60.00,Monday
16,7767577.487472119
804,5473423.092769455
853,0.0
3,7, 1, 7, 0,Monday
7,-5.505729166666664,-11.1, 7,60,-2.3,24,60
8,-6.389583333333333,-12.1, 7,60,-2.9, 1,60
9,-5.813797856992925,-11.366139782034363, 7,60,-2.600129425188394, 1,60
10,18.200520833333332,0.0, 1,15,84.0,12,30
11,80.8359375,0.0, 1,15,390.0,13,30
12,171.29259514926343,0.4747425056558858, 1,45,340.0772010768144,24,60
13,-19.800915512093123,-60.02709001319141, 1,45,15.057526730624629,13,45
1790,51055605.918673225,0.0, 1,15,3262481.7869832376,10,30
2,8, 1, 8, 0, 1, 0.00,60.00,Tuesday
16,7220942.154597934
804,5978023.307769415
853,0.0
2,8, 1, 8, 0, 2, 0.00,60.00,Tuesday
16,4566240.878071144
804,6406757.90331028
853,0.0
2,8, 1, 8, 0, 3, 0.00,60.00,Tuesday
16,4566240.878071144
804,6784358.823405312
853,0.0
2,8, 1, 8, 0, 4, 0.00,60.00,Tuesday
16,7220416.872668491
804,7252218.416253454
853,0.0
2,8, 1, 8, 0, 5, 0.00,60.00,Tuesday
16,4566240.878071144
804,7605133.558280872
853,0.0
2,8, 1, 8, 0, 6, 0.00,60.00,Tuesday
16,4566240.878071144
804,7864068.073019452
853,0.0
2,8, 1, 8, 0, 7, 0.00,60.00,Tuesday
16,7768042.6663536085
804,8114394.90391625
853,0.0
2,8, 1, 8, 0, 8, 0.00,60.00,Tuesday
16,7767404.7399636125
804,32462656.863184642
853,0.0
2,8, 1, 8, 0, 9, 0.00,60.00,Tuesday
16,11839729.859827679
804,29142887.633712918
853,0.0
2,8, 1, 8, 0,10, 0.00,60.00,Tuesday
16,8203325.344724338
804,26323384.627777588
853,0.0
2,8, 1, 8, 0,11, 0.00,60.00,Tuesday
16,7375126.434655575
804,24377328.933041852
853,0.0
2,8, 1, 8, 0,12, 0.00,60.00,Tuesday
16,4566240.878071144
804,22935074.613638774
853,0.0
2,8, 1, 8, 0,13, 0.00,60.00,Tuesday
16,7375165.041845188
804,21975013.536276124
853,0.0
2,8, 1, 8, 0,14, 0.00,60.00,Tuesday
16,4566240.878071144
804,21504131.97957324
853,0.0
2,8, 1, 8, 0,15, 0.00,60.00,Tuesday
16,7375254.2634546645
804,21001320.911609426
853,0.0
2,8, 1, 8, 0,16, 0.00,60.00,Tuesday
16,6954457.8642148115
804,20677353.645491797
853,0.0
2,8, 1, 8, 0,17, 0.00,60.00,Tuesday
16,4987177.158340675
804,20491784.294695225
853,0.0
2,8, 1, 8, 0,18, 0.00,60.00,Tuesday
16,7844377.73819777
804,20078720.221971467
853,0.0
2,8, 1, 8, 0,19, 0.00,60.00,Tuesday
16,8263430.163357433
804,19590946.42905422
853,0.0
2,8, 1, 8, 0,20, 0.00,60.00,Tuesday
16,10180941.363215383
804,180266.9911735648
853,0.0
2,8, 1, 8, 0,21, 0.00,60.00,Tuesday
16,8363363.506111065
804,1619601.1772064497
853,0.0
2,8, 1, 8, 0,22, 0.00,60.00,Tuesday
16,7767336.948175827
804,2281276.600505844
853,0.0
2,8, 1, 8, 0,23, 0.00,60.00,Tuesday
16,7768007.8757962715
804,2729584.042674032
853,0.0
2,8, 1, 8, 0,24, 0.00,60.00,Tuesday
16,7767373.556396395
804,3132105.9915593206
853,0.0
3,8, 1, 8, 0,Tuesday
7,0.33385416666666695,-2.25, 1,15,4.0,23,60
8,-0.19583404686953979,-3.6, 7,60,4.0,23,60
9,0.1188314416176298,-2.7575005134912995, 7,60,4.0,23,60
10,6.432291666666667,0.0, 1,15,34.0,12,30
11,0.3151041666666667,0.0, 1,15,7.0,10,30
12,171.19300465716188,0.2770419467789127, 1,45,339.9474288361953,24,60
13,-19.69085628613162,-59.900432936670626, 1,45,15.184830734836614,13,45
1790,53864583.97195452,0.0, 1,30,3273295.7295154356, 9,60
2,9, 1, 9, 0, 1, 0.00,60.00,Wednesday
16,4566240.878071144
804,3465289.5221001413
853,0.0
2,9, 1, 9, 0, 2, 0.00,60.00,Wednesday
16,7220673.424992346
804,4112557.133254264
853,0.0
2,9, 1, 9, 0, 3, 0.00,60.00,Wednesday
16,4566240.878071144
804,4873322.060552372
853,0.0
2,9, 1, 9, 0, 4, 0.00,60.00,Wednesday
16,4566240.878071144
804,5254457.802159036
853,0.0
2,9, 1, 9, 0, 5, 0.00,60.00,Wednesday
16,4566240.878071144
804,5243153.669646076
853,0.0
2,9, 1, 9, 0, 6, 0.00,60.00,Wednesday
16,7220589.840846819
804,4992449.480614808
853,0.0
2,9, 1, 9, 0, 7, 0.00,60.00,Wednesday
16,7767243.01276277
804,4933295.666099983
853,0.0
2,9, 1, 9, 0, 8, 0.00,60.00,Wednesday
16,7767948.334689429
804,30453040.35430065
853,3488.284163175733
2,9, 1, 9, 0, 9, 0.00,60.00,Wednesday
16,8202765.861982642
804,25319464.426707067
853,0.0
2,9, 1, 9, 0,10, 0.00,60.00,Wednesday
16,11840286.809669342
804,22123311.497868583
853,0.0
2,9, 1, 9, 0,11, 0.00,60.00,Wednesday
16,4566240.878071144
804,19424212.112880874
853,0.0
2,9, 1, 9, 0,12, 0.00,60.00,Wednesday
16,7375173.202574625
804,17410364.692996338
853,0.0
2,9, 1, 9, 0,13, 0.00,60.00,Wednesday
16,4566240.878071144
804,16262365.254775759
853,0.0
2,9, 1, 9, 0,14, 0.00,60.00,Wednesday
16,7375128.439942445
804,15673328.091249973
853,0.0
2,9, 1, 9, 0,15, 0.00,60.00,Wednesday
16,6209086.82602529
804,16009975.806717
853,0.0
2,9, 1, 9, 0,16, 0.00,60.00,Wednesday
16,5732288.280934045
804,16637736.8573054
853,0.0
2,9, 1, 9, 0,17, 0.00,60.00,Wednesday
16,7375190.605839746
804,16960684.372510985
853,0.0
2,9, 1, 9, 0,18, 0.00,60.00,Wednesday
16,7843807.375259023
804,17744111.488879982
853,0.0
2,9, 1, 9, 0,19, 0.00,60.00,Wednesday
16,7843653.586647477
804,20396767.10664703
853,0.0
2,9, 1, 9, 0,20, 0.00,60.00,Wednesday
16,7843301.935303217
804,0.0
853,0.0
2,9, 1, 9, 0,21, 0.00,60.00,Wednesday
16,7843691.182865285
804,110401.29377118275
853,0.0
2,9, 1, 9, 0,22, 0.00,60.00,Wednesday
16,8627134.842390327
804,574820.9057882958
853,0.0
2,9, 1, 9, 0,23, 0.00,60.00,Wednesday
16,9173601.85670492
804,995044.3299933093
853,0.0
2,9, 1, 9, 0,24, 0.00,60.00,Wednesday
16,8703719.015961232
804,1383864.5213322304
853,0.0
3,9, 1, 9, 0,Wednesday
7,4.736458333333332,2.1, 3,60,7.6,23,60
8,4.126040580561692,1.9, 1,60,5.999997196412721,13,60
9,4.590807866781274,2.0999984741210938, 3,60,6.748006875248453,23,60
10,18.317708333333332,0.0, 1,15,94.0,12,30
11,18.375,0.0, 1,15,158.0,13,30
12,171.0951546233548,0.08415330395139851, 1,45,339.824999142154,24,60
13,-19.574463356569648,-59.76628024130013, 1,45,15.319288581092687,13,45
1790,53795653.767099336,0.0, 1,15,3273308.5705163027,10,15
2,10, 1,10, 0, 1, 0.00,60.00,Thursday
16,4566240.878071144
804,2170005.1099899616
853,0.0
2,10, 1,10, 0, 2, 0.00,60.00,Thursday
16,4566240.878071144
804,2364582.3858195716
853,0.0
2,10, 1,10, 0, 3, 0.00,60.00,Thursday
16,4566240.878071144
804,3258162.946421694
853,0.0
2,10, 1,10, 0, 4, 0.00,60.00,Thursday
16,7220803.790196789
804,3921356.0694857924
853,0.0
2,10, 1,10, 0, 5, 0.00,60.00,Thursday
16,4566240.878071144
804,4247090.165445363
853,0.0
2,10, 1,10, 0, 6, 0.00,60.00,Thursday
16,4566240.878071144
804,4492663.616394693
853,0.0
2,10, 1,10, 0, 7, 0.00,60.00,Thursday
16,7767480.262655353
804,4737599.601358453
853,0.0
2,10, 1,10, 0, 8, 0.00,60.00,Thursday
16,7767043.60479596
804,29242812.583943322
853,11854.497843905325
2,10, 1,10, 0, 9, 0.00,60.00,Thursday
16,11840253.419701463
804,25008803.40846265
853,0.0
2,10, 1,10, 0,10, 0.00,60.00,Thursday
16,8202705.468786266
804,22444436.392537236
853,0.0
2,10, 1,10, 0,11, 0.00,60.00,Thursday
16,7375778.452353797
804,19821762.993709773
853,0.0
2,10, 1,10, 0,12, 0.00,60.00,Thursday
16,4566240.878071144
804,17799549.040831782
853,0.0
2,10, 1,10, 0,13, 0.00,60.00,Thursday
16,7375802.143860307
804,16674181.09358818
853,0.0
2,10, 1,10, 0,14, 0.00,60.00,Thursday
16,4668613.991328302
804,15604977.903687054
853,0.0
2,10, 1,10, 0,15, 0.00,60.00,Thursday
16,7273350.910831805
804,15550419.971457772
853,0.0
2,10, 1,10, 0,16, 0.00,60.00,Thursday
16,7375503.260631372
804,16557930.292924238
853,0.0
2,10, 1,10, 0,17, 0.00,60.00,Thursday
16,4566240.878071144
804,17159035.337096643
853,0.0
2,10, 1,10, 0,18, 0.00,60.00,Thursday
16,7843663.68365028
804,17552366.188844554
853,0.0
2,10, 1,10, 0,19, 0.00,60.00,Thursday
16,9208355.404782157
804,17547076.77308065
853,0.0
2,10, 1,10, 0,20, 0.00,60.00,Thursday
16,9756222.149211638
804,12268.196347445353
853,0.0
2,10, 1,10, 0,21, 0.00,60.00,Thursday
16,7843454.814822847
804,903148.5430158528
853,0.0
2,10, 1,10, 0,22, 0.00,60.00,Thursday
16,7767932.023355684
804,1916035.4349785598
853,0.0
2,10, 1,10, 0,23, 0.00,60.00,Thursday
16,7767592.299932766
804,2511986.3179343063
853,0.0
2,10, 1,10, 0,24, 0.00,60.00,Thursday
16,7767225.867603752
804,2687459.180635924
853,0.0
3,10, 1,10, 0,Thursday
7,4.616666666666666,2.7,23,60,7.5249999999999995, 1,15
8,2.0005208333333333,0.2, 7,60,5.3999999999999995, 1,15
9,3.6733112254525153,2.509699567522247,23,60,6.459245160919081, 1,15
10,18.4375,0.0, 1,15,91.0,13,30
11,35.565104166666664,0.0, 1,15,199.0,10,30
12,171.00130137365522,0.1036831833804491, 1,45,339.71002178991677,24,60
13,-19.451784315637955,-59.624707977317236, 1,45,15.460844461957508,13,45
1790,51476117.959161974,0.0, 1,15,3273321.7565410743, 9,15
2,11, 1,11, 0, 1, 0.00,60.00,Friday
16,4566240.878071144
804,2796164.7122631418
853,0.0
2,11, 1,11, 0, 2, 0.00,60.00,Friday
16,7220373.22771422
804,3115156.4446099047
853,0.0
2,11, 1,11, 0, 3, 0.00,60.00,Friday
16,4566240.878071144
804,3576294.6372202532
853,0.0
2,11, 1,11, 0, 4, 0.00,60.00,Friday
16,4566240.878071144
804,4174601.285768975
853,0.0
2,11, 1,11, 0, 5, 0.00,60.00,Friday
16,4566240.878071144
804,4775178.62414247
853,0.0
2,11, 1,11, 0, 6, 0.00,60.00,Friday
16,7220897.155836893
804,5111893.27892131
853,0.0
2,11, 1,11, 0, 7, 0.00,60.00,Friday
16,7767804.707793441
804,5175121.088006334
853,0.0
2,11, 1,11, 0, 8, 0.00,60.00,Friday
16,7767860.5860033855
804,29800474.35531234
853,8323.854701425851
2,11, 1,11, 0, 9, 0.00,60.00,Friday
16,8414484.874928262
804,25297344.76577444
853,0.0
2,11, 1,11, 0,10, 0.00,60.00,Friday
16,11628411.58658808
804,22570443.70873503
853,0.0
2,11, 1,11, 0,11, 0.00,60.00,Friday
16,4566240.878071144
804,19965537.182882387
853,0.0
2,11, 1,11, 0,12, 0.00,60.00,Friday
16,7375739.356713574
804,18371753.861398757
853,0.0
2,11, 1,11, 0,13, 0.00,60.00,Friday
16,4566240.878071144
804,17292994.33963785
853,0.0
2,11, 1,11, 0,14, 0.00,60.00,Friday
16,7375763.108170519
804,15493400.656391842
853,0.0
2,11, 1,11, 0,15, 0.00,60.00,Friday
16,7375786.823197994
804,13315202.858693609
853,0.0
2,11, 1,11, 0,16, 0.00,60.00,Friday
16,4566240.878071144
804,14226880.403382584
853,0.0
2,11, 1,11, 0,17, 0.00,60.00,Friday
16,7375810.501877168
804,17158162.10360141
853,0.0
2,11, 1,11, 0,18, 0.00,60.00,Friday
16,7844282.830546027
804,17738976.324160308
853,0.0
2,11, 1,11, 0,19, 0.00,60.00,Friday
16,7843458.8224152
804,17749699.70551825
853,0.0
2,11, 1,11, 0,20, 0.00,60.00,Friday
16,7843286.922390179
804,89794.66543749512
853,0.0
2,11, 1,11, 0,21, 0.00,60.00,Friday
16,8288029.619656885
804,1310597.7607201778
853,0.0
2,11, 1,11, 0,22, 0.00,60.00,Friday
16,9173732.967821904
804,2395525.0439733844
853,0.0
2,11, 1,11, 0,23, 0.00,60.00,Friday
16,9128621.289598323
804,3250579.866422739
853,0.0
2,11, 1,11, 0,24, 0.00,60.00,Friday
16,7767700.965258988
804,3647007.8053323915
853,0.0
3,11, 1,11, 0,Friday
7,3.1302083333333326,2.1,23,60,4.4,15,60
8,1.0171875000000001,0.1, 7,60,2.4, 3,60
9,2.372332722381356,1.54409270954401,23,60,3.567697330803043, 1,60
10,16.3828125,0.0, 1,15,76.0,13,30
11,100.76822916666667,0.0, 1,15,475.0,13,30
12,170.9110217294324,0.2862432384600441, 1,45,339.602590374645,24,60
13,-19.322869432033745,-59.47579603669277, 1,45,15.609439599683608,13,45
1790,53807355.37737142,0.0, 1,15,3273334.9897562303, 9,30