Program Version,EnergyPlus, Version 23.2.0-7636e6b3e9, YMD=2025.01.12 04:51
1,5,Environment Title[],Latitude[deg],Longitude[deg],Time Zone[],Elevation[m]
2,8,Day of Simulation[],Month[],Day of Month[],DST Indicator[1=yes 0=no],Hour[],StartMinute[],EndMinute[],DayType
3,5,Cumulative Day of Simulation[],Month[],Day of Month[],DST Indicator[1=yes 0=no],DayType  ! When Daily Report Variables Requested
4,2,Cumulative Days of Simulation[],Month[]  ! When Monthly Report Variables Requested
5,1,Cumulative Days of Simulation[] ! When Run Period Report Variables Requested
6,1,Calendar Year of Simulation[] ! When Annual Report Variables Requested
7,7,Environment,Site Outdoor Air Drybulb Temperature [C] !Daily [Value,Min,Hour,Minute,Max,Hour,Minute]
8,7,Environment,Site Outdoor Air Dewpoint Temperature [C] !Daily [Value,Min,Hour,Minute,Max,Hour,Minute]
9,7,Environment,Site Outdoor Air Wetbulb Temperature [C] !Daily [Value,Min,Hour,Minute,Max,Hour,Minute]
10,7,Environment,Site Diffuse Solar Radiation Rate per Area [W/m2] !Daily [Value,Min,Hour,Minute,Max,Hour,Minute]
11,7,Environment,Site Direct Solar Radiation Rate per Area [W/m2] !Daily [Value,Min,Hour,Minute,Max,Hour,Minute]
12,7,Environment,Site Solar Azimuth Angle [deg] !Daily [Value,Min,Hour,Minute,Max,Hour,Minute]
13,7,Environment,Site Solar Altitude Angle [deg] !Daily [Value,Min,Hour,Minute,Max,Hour,Minute]
1790,7,MYDHW_1_WATERHEATER,Water Heater Heating Energy [J] !Daily [Value,Min,Hour,Minute,Max,Hour,Minute]
804,1,Heating:EnergyTransfer [J] !Hourly
853,1,Cooling:EnergyTransfer [J] !Hourly
16,1,Electricity:Facility [J] !Hourly
End of Data Dictionary
1,RUN PERIOD 1,  52.46,   5.52,   1.00,  -3.90
2,1, 1, 1, 0, 1, 0.00,60.00,Tuesday
16,4566240.878071144
804,3488869.9497423912
853,0.0
2,1, 1, 1, 0, 2, 0.00,60.00,Tuesday
16,4566240.878071144
804,3861041.3779028193
853,0.0
2,1, 1, 1, 0, 3, 0.00,60.00,Tuesday
16,4566240.878071144
804,4191126.366686389
853,0.0
2,1, 1, 1, 0, 4, 0.00,60.00,Tuesday
16,7220699.114133755
804,4553247.504366846
853,0.0
2,1, 1, 1, 0, 5, 0.00,60.00,Tuesday
16,4566240.878071144
804,4871088.371678661
853,0.0
2,1, 1, 1, 0, 6, 0.00,60.00,Tuesday
16,4566240.878071144
804,5188502.839222521
853,0.0
2,1, 1, 1, 0, 7, 0.00,60.00,Tuesday
16,7767822.485814117
804,5415863.883380535
853,0.0
2,1, 1, 1, 0, 8, 0.00,60.00,Tuesday
16,7767176.781317075
804,30533486.692037046
853,0.0
2,1, 1, 1, 0, 9, 0.00,60.00,Tuesday
16,11840162.197258614
804,26218183.520354904
853,0.0
2,1, 1, 1, 0,10, 0.00,60.00,Tuesday
16,8202949.20348654
804,23560975.313051853
853,0.0
2,1, 1, 1, 0,11, 0.00,60.00,Tuesday
16,7375654.870340777
804,21641446.002870522
853,0.0
2,1, 1, 1, 0,12, 0.00,60.00,Tuesday
16,4566240.878071144
804,20451904.549738456
853,0.0
2,1, 1, 1, 0,13, 0.00,60.00,Tuesday
16,7375717.3733161185
804,19723410.65035699
853,0.0
2,1, 1, 1, 0,14, 0.00,60.00,Tuesday
16,4566240.878071144
804,19255301.49116745
853,0.0
2,1, 1, 1, 0,15, 0.00,60.00,Tuesday
16,7375741.158512669
804,18590347.6985754
853,0.0
2,1, 1, 1, 0,16, 0.00,60.00,Tuesday
16,7375764.907205295
804,18760634.686689205
853,0.0
2,1, 1, 1, 0,17, 0.00,60.00,Tuesday
16,4566240.878071144
804,20123150.130446594
853,0.0
2,1, 1, 1, 0,18, 0.00,60.00,Tuesday
16,7843937.132860399
804,20190940.726855427
853,0.0
2,1, 1, 1, 0,19, 0.00,60.00,Tuesday
16,8781010.000595238
804,19782728.526559107
853,0.0
2,1, 1, 1, 0,20, 0.00,60.00,Tuesday
16,10180946.004481532
804,331525.72937922506
853,0.0
2,1, 1, 1, 0,21, 0.00,60.00,Tuesday
16,7845781.47116727
804,1947838.6404082347
853,0.0
2,1, 1, 1, 0,22, 0.00,60.00,Tuesday
16,7767665.277511345
804,2610032.667997917
853,0.0
2,1, 1, 1, 0,23, 0.00,60.00,Tuesday
16,7767982.560624605
804,3014390.3312993124
853,0.0
2,1, 1, 1, 0,24, 0.00,60.00,Tuesday
16,7767211.596572567
804,3156051.584732673
853,0.0
3,1, 1, 1, 0,Tuesday
7,2.891666666666666,1.4,16,60,4.2, 1,60
8,-0.03749999999999998,-2.5,10,60,2.1,24,60
9,1.854739388525906,0.4001495373206364,13,60,3.0998073170807516, 1,60
10,17.307291666666668,0.0, 1,15,86.0,12,30
11,26.854166666666668,0.0, 1,15,152.0,10,30
12,171.9210012821981,1.7466514206994332, 1,45,341.00180793165543,24,60
13,-20.325946072972584,-60.625898049216175, 1,45,14.446671545683287,13,45
1790,51476731.277453646,0.0, 1,15,3273406.7332569524, 9,60
2,2, 1, 2, 0, 1, 0.00,60.00,Wednesday
16,4566240.878071144
804,3942690.803675269
853,0.0
2,2, 1, 2, 0, 2, 0.00,60.00,Wednesday
16,7220901.411440032
804,4383427.834982397
853,0.0
2,2, 1, 2, 0, 3, 0.00,60.00,Wednesday
16,4566240.878071144
804,4594771.529812915
853,0.0
2,2, 1, 2, 0, 4, 0.00,60.00,Wednesday
16,4566240.878071144
804,5023858.452187432
853,0.0
2,2, 1, 2, 0, 5, 0.00,60.00,Wednesday
16,4566240.878071144
804,5134974.923065503
853,0.0
2,2, 1, 2, 0, 6, 0.00,60.00,Wednesday
16,7220479.448025311
804,5233461.801174754
853,0.0
2,2, 1, 2, 0, 7, 0.00,60.00,Wednesday
16,7767470.094071257
804,5386146.305842107
853,0.0
2,2, 1, 2, 0, 8, 0.00,60.00,Wednesday
16,7768061.945067976
804,30042745.38917417
853,0.0
2,2, 1, 2, 0, 9, 0.00,60.00,Wednesday
16,8203086.5802777
804,25156353.91940363
853,0.0
2,2, 1, 2, 0,10, 0.00,60.00,Wednesday
16,11840043.423359653
804,22345289.689696863
853,0.0
2,2, 1, 2, 0,11, 0.00,60.00,Wednesday
16,4566240.878071144
804,20011294.26617866
853,0.0
2,2, 1, 2, 0,12, 0.00,60.00,Wednesday
16,7375343.744810908
804,18532420.403390925
853,0.0
2,2, 1, 2, 0,13, 0.00,60.00,Wednesday
16,4566240.878071144
804,17119462.069513537
853,0.0
2,2, 1, 2, 0,14, 0.00,60.00,Wednesday
16,7375518.060721619
804,14962217.459123006
853,0.0
2,2, 1, 2, 0,15, 0.00,60.00,Wednesday
16,7375702.273383185
804,12414365.233897358
853,0.0
2,2, 1, 2, 0,16, 0.00,60.00,Wednesday
16,4566240.878071144
804,12950250.487029746
853,0.0
2,2, 1, 2, 0,17, 0.00,60.00,Wednesday
16,7375726.0817674305
804,15631988.65242358
853,0.0
2,2, 1, 2, 0,18, 0.00,60.00,Wednesday
16,7844188.0936226975
804,16508434.484756373
853,0.0
2,2, 1, 2, 0,19, 0.00,60.00,Wednesday
16,7843478.452074323
804,17013781.330159627
853,0.0
2,2, 1, 2, 0,20, 0.00,60.00,Wednesday
16,7843282.6643712735
804,22976.312054083464
853,0.0
2,2, 1, 2, 0,21, 0.00,60.00,Wednesday
16,7862538.891964898
804,763485.4041438322
853,0.0
2,2, 1, 2, 0,22, 0.00,60.00,Wednesday
16,9173996.116167217
804,1696301.3270604564
853,0.0
2,2, 1, 2, 0,23, 0.00,60.00,Wednesday
16,9173642.73820959
804,2399402.4448930165
853,0.0
2,2, 1, 2, 0,24, 0.00,60.00,Wednesday
16,8138722.312008305
804,2999646.8593600644
853,0.0
3,2, 1, 2, 0,Wednesday
7,3.686458333333334,2.7,19,60,4.7,15,60
8,0.859375,-2.5,24,60,3.0, 8,60
9,2.7411140405471186,1.1746816380023941, 1,60,3.8128607493951674, 8,60
10,16.630208333333332,0.0, 1,15,76.0,12,30
11,62.854166666666664,0.0, 1,15,310.0,15,30
12,171.8131188905313,1.5259563868488346, 1,45,340.83120702053344,24,60
13,-20.25473323294449,-60.545572589949266, 1,45,14.530053212951353,13,45
1790,53798478.66372053,0.0, 1,15,3273420.038210328,10,15
2,3, 1, 3, 0, 1, 0.00,60.00,Thursday
16,4566240.878071144
804,3342218.9885889124
853,0.0
2,3, 1, 3, 0, 2, 0.00,60.00,Thursday
16,4566240.878071144
804,3628674.8963097483
853,0.0
2,3, 1, 3, 0, 3, 0.00,60.00,Thursday
16,4566240.878071144
804,3791946.2507108604
853,0.0
2,3, 1, 3, 0, 4, 0.00,60.00,Thursday
16,7220380.54892491
804,4115703.07384318
853,0.0
2,3, 1, 3, 0, 5, 0.00,60.00,Thursday
16,4566240.878071144
804,4377479.84792184
853,0.0
2,3, 1, 3, 0, 6, 0.00,60.00,Thursday
16,4566240.878071144
804,4770280.862407285
853,0.0
2,3, 1, 3, 0, 7, 0.00,60.00,Thursday
16,7767248.055022609
804,5298131.2318868
853,0.0
2,3, 1, 3, 0, 8, 0.00,60.00,Thursday
16,7766958.248588724
804,30619348.64602323
853,21454.117228401698
2,3, 1, 3, 0, 9, 0.00,60.00,Thursday
16,11840022.495509885
804,25833922.20381226
853,0.0
2,3, 1, 3, 0,10, 0.00,60.00,Thursday
16,8202493.566106837
804,22816687.91183061
853,0.0
2,3, 1, 3, 0,11, 0.00,60.00,Thursday
16,7375291.220570305
804,20050967.536899466
853,0.0
2,3, 1, 3, 0,12, 0.00,60.00,Thursday
16,4566240.878071144
804,18058205.305723246
853,0.0
2,3, 1, 3, 0,13, 0.00,60.00,Thursday
16,7375186.760812883
804,16843369.286901634
853,0.0
2,3, 1, 3, 0,14, 0.00,60.00,Thursday
16,5876904.230491449
804,14488473.649416361
853,0.0
2,3, 1, 3, 0,15, 0.00,60.00,Thursday
16,6064469.460983397
804,11642271.373864114
853,0.0
2,3, 1, 3, 0,16, 0.00,60.00,Thursday
16,7375129.417247423
804,13041099.106640354
853,0.0
2,3, 1, 3, 0,17, 0.00,60.00,Thursday
16,4566240.878071144
804,17073671.798088867
853,0.0
2,3, 1, 3, 0,18, 0.00,60.00,Thursday
16,7843483.147436
804,18378933.982549272
853,0.0
2,3, 1, 3, 0,19, 0.00,60.00,Thursday
16,9722853.80552679
804,18891973.285409786
853,0.0
2,3, 1, 3, 0,20, 0.00,60.00,Thursday
16,9242074.877210502
804,305595.9680103261
853,0.0
2,3, 1, 3, 0,21, 0.00,60.00,Thursday
16,7843559.9297836125
804,2150169.2493336666
853,0.0
2,3, 1, 3, 0,22, 0.00,60.00,Thursday
16,7768044.414171283
804,3288089.353967443
853,0.0
2,3, 1, 3, 0,23, 0.00,60.00,Thursday
16,7767299.714534149
804,3812357.098221466
853,0.0
2,3, 1, 3, 0,24, 0.00,60.00,Thursday
16,7767419.750290498
804,4063217.766631541
853,0.0
3,3, 1, 3, 0,Thursday
7,1.1666666666666665,-1.0,19,60,2.775, 1,15
8,-0.6007504992247794,-2.2,13,60,1.3,24,60
9,0.3890060654580482,-1.321738782587282,19,60,2.1129291271731074, 1,15
10,14.333333333333334,0.0, 1,15,65.0,13,30
11,122.921875,0.0, 1,15,558.0,13,30
12,171.70635220439564,1.3083254005832814, 1,45,340.6669445746221,24,60
13,-20.176959693862347,-60.45738645598138, 1,45,14.6208584194948,13,45
1790,51473452.24440163,0.0, 1,15,3273432.107984981, 9,15
2,4, 1, 4, 0, 1, 0.00,60.00,Friday
16,4566240.878071144
804,4819326.722044101
853,0.0
2,4, 1, 4, 0, 2, 0.00,60.00,Friday
16,7220926.321593072
804,5522165.018858701
853,0.0
2,4, 1, 4, 0, 3, 0.00,60.00,Friday
16,4566240.878071144
804,5934756.946569758
853,0.0
2,4, 1, 4, 0, 4, 0.00,60.00,Friday
16,4566240.878071144
804,6345210.189786013
853,0.0
2,4, 1, 4, 0, 5, 0.00,60.00,Friday
16,5965539.789712233
804,6939187.7926679095
853,0.0
2,4, 1, 4, 0, 6, 0.00,60.00,Friday
16,5821044.855578151
804,7447221.977114005
853,0.0
2,4, 1, 4, 0, 7, 0.00,60.00,Friday
16,7767986.356559362
804,7889403.9464919735
853,0.0
2,4, 1, 4, 0, 8, 0.00,60.00,Friday
16,7767426.989489345
804,32215926.41674321
853,0.0
2,4, 1, 4, 0, 9, 0.00,60.00,Friday
16,8799365.489834841
804,29199759.10332411
853,0.0
2,4, 1, 4, 0,10, 0.00,60.00,Friday
16,11243108.485489175
804,25791357.65599201
853,0.0
2,4, 1, 4, 0,11, 0.00,60.00,Friday
16,4566240.878071144
804,22975730.46964006
853,0.0
2,4, 1, 4, 0,12, 0.00,60.00,Friday
16,7375573.707896141
804,20873417.723603062
853,0.0
2,4, 1, 4, 0,13, 0.00,60.00,Friday
16,5132994.655678328
804,19393302.660509214
853,0.0
2,4, 1, 4, 0,14, 0.00,60.00,Friday
16,6808632.231093768
804,16806939.504416868
853,0.0
2,4, 1, 4, 0,15, 0.00,60.00,Friday
16,7375248.786067429
804,13828143.507639062
853,0.0
2,4, 1, 4, 0,16, 0.00,60.00,Friday
16,4566240.878071144
804,15157073.275333053
853,0.0
2,4, 1, 4, 0,17, 0.00,60.00,Friday
16,7375162.061761092
804,19233942.99974727
853,0.0
2,4, 1, 4, 0,18, 0.00,60.00,Friday
16,7844326.461123166
804,20483155.935082253
853,0.0
2,4, 1, 4, 0,19, 0.00,60.00,Friday
16,7843583.168817726
804,20923769.647671185
853,0.0
2,4, 1, 4, 0,20, 0.00,60.00,Friday
16,7843254.161629878
804,1276563.788500051
853,0.0
2,4, 1, 4, 0,21, 0.00,60.00,Friday
16,8803316.500714969
804,4481616.023983608
853,0.0
2,4, 1, 4, 0,22, 0.00,60.00,Friday
16,9173592.856939152
804,5660181.028587414
853,0.0
2,4, 1, 4, 0,23, 0.00,60.00,Friday
16,8625287.236756478
804,6542707.60398048
853,0.0
2,4, 1, 4, 0,24, 0.00,60.00,Friday
16,7767383.415345793
804,7152365.009154243
853,0.0
3,4, 1, 4, 0,Friday
7,-2.370833333333333,-5.0,23,60,0.5999999999999999, 1,15
8,-3.617708333333334,-7.7,24,60,0.3750000000000001, 1,15
9,-2.8442852708335775,-5.828734757976214,24,60,0.4861570244684519, 1,15
10,14.375,0.0, 1,15,66.0,13,30
11,129.13541666666666,0.0, 1,15,576.0,13,30
12,171.60081020210077,1.0940828941618326, 1,45,340.50922888156305,24,60
13,-20.09265613455602,-60.36138875158809, 1,45,14.71905019080346,13,45
1790,53815659.163855515,0.0, 1,15,3273445.6027500574, 9,30
2,5, 1, 5, 0, 1, 0.00,60.00,Saturday
16,4566240.878071144
804,7480090.37323356
853,0.0
2,5, 1, 5, 0, 2, 0.00,60.00,Saturday
16,4566240.878071144
804,7860218.34685324
853,0.0
2,5, 1, 5, 0, 3, 0.00,60.00,Saturday
16,5749652.893413956
804,8391005.35588259
853,0.0
2,5, 1, 5, 0, 4, 0.00,60.00,Saturday
16,6036941.362956442
804,8889422.746493049
853,0.0
2,5, 1, 5, 0, 5, 0.00,60.00,Saturday
16,4566240.878071144
804,9317113.161048386
853,0.0
2,5, 1, 5, 0, 6, 0.00,60.00,Saturday
16,4566240.878071144
804,9748853.749437235
853,0.0
2,5, 1, 5, 0, 7, 0.00,60.00,Saturday
16,7767286.051121738
804,10153578.599992486
853,0.0
2,5, 1, 5, 0, 8, 0.00,60.00,Saturday
16,8584442.393916292
804,35929545.56295973
853,0.0
2,5, 1, 5, 0, 9, 0.00,60.00,Saturday
16,10912651.020891853
804,32595666.058935087
853,0.0
2,5, 1, 5, 0,10, 0.00,60.00,Saturday
16,8202352.4214307
804,29265694.590365995
853,0.0
2,5, 1, 5, 0,11, 0.00,60.00,Saturday
16,7375787.732072104
804,26624207.94342803
853,0.0
2,5, 1, 5, 0,12, 0.00,60.00,Saturday
16,4566240.878071144
804,24660004.803433936
853,0.0
2,5, 1, 5, 0,13, 0.00,60.00,Saturday
16,7375811.409358919
804,23282572.42433621
853,0.0
2,5, 1, 5, 0,14, 0.00,60.00,Saturday
16,7375631.593596504
804,20509293.232068256
853,0.0
2,5, 1, 5, 0,15, 0.00,60.00,Saturday
16,4566240.878071144
804,17469491.595855128
853,0.0
2,5, 1, 5, 0,16, 0.00,60.00,Saturday
16,7375430.590883653
804,18621357.58880468
853,0.0
2,5, 1, 5, 0,17, 0.00,60.00,Saturday
16,4566240.878071144
804,21954375.34970541
853,0.0
2,5, 1, 5, 0,18, 0.00,60.00,Saturday
16,8714397.638499271
804,22802600.557302125
853,0.0
2,5, 1, 5, 0,19, 0.00,60.00,Saturday
16,10181038.947657933
804,22790185.58262697
853,0.0
2,5, 1, 5, 0,20, 0.00,60.00,Saturday
16,7913573.269792783
804,1743139.1174441127
853,0.0
2,5, 1, 5, 0,21, 0.00,60.00,Saturday
16,7844259.641761322
804,4628927.892647514
853,0.0
2,5, 1, 5, 0,22, 0.00,60.00,Saturday
16,7767286.311251611
804,5456906.654641842
853,0.0
2,5, 1, 5, 0,23, 0.00,60.00,Saturday
16,7767440.891353918
804,5968699.469615534
853,0.0
2,5, 1, 5, 0,24, 0.00,60.00,Saturday
16,7768051.677710062
804,6430874.284954054
853,0.0
3,5, 1, 5, 0,Saturday
7,-4.088541666666665,-5.5, 7,60,-2.8,13,60
8,-7.080208333333332,-7.45, 1,15,-6.7, 1,60
9,-5.141229228510597,-6.135298049949361, 7,60,-4.298956651781032,13,60
10,14.5703125,0.0, 1,15,65.0,13,30
11,132.4921875,0.0, 1,15,603.0,13,30
12,171.49660012976298,0.8835410953785034, 1,45,340.35825202416595,24,60
13,-20.001856138640335,-60.257633494339274, 1,45,14.82458830946985,13,45
1790,51377346.82841364,0.0, 1,15,2950216.88732116,21,45
2,6, 1, 6, 0, 1, 0.00,60.00,Sunday
16,6799917.6533886455
804,6867785.435446564
853,0.0
2,6, 1, 6, 0, 2, 0.00,60.00,Sunday
16,4986914.130170771
804,7281263.295455588
853,0.0
2,6, 1, 6, 0, 3, 0.00,60.00,Sunday
16,4566240.878071144
804,7636213.561508372
853,0.0
2,6, 1, 6, 0, 4, 0.00,60.00,Sunday
16,4566240.878071144
804,7913663.166806333
853,0.0
2,6, 1, 6, 0, 5, 0.00,60.00,Sunday
16,7220939.825390602
804,8173307.350353791
853,0.0
2,6, 1, 6, 0, 6, 0.00,60.00,Sunday
16,4566240.878071144
804,8390147.575865312
853,0.0
2,6, 1, 6, 0, 7, 0.00,60.00,Sunday
16,7767403.422852457
804,8599607.383457545
853,0.0
2,6, 1, 6, 0, 8, 0.00,60.00,Sunday
16,7767311.216617039
804,33517988.03900758
853,0.0
2,6, 1, 6, 0, 9, 0.00,60.00,Sunday
16,9793166.264775693
804,30379175.88307762
853,0.0
2,6, 1, 6, 0,10, 0.00,60.00,Sunday
16,10247901.331813611
804,27581910.84911976
853,0.0
2,6, 1, 6, 0,11, 0.00,60.00,Sunday
16,4566240.878071144
804,25245065.908363484
853,0.0
2,6, 1, 6, 0,12, 0.00,60.00,Sunday
16,7375748.8139897855
804,23325192.840860613
853,0.0
2,6, 1, 6, 0,13, 0.00,60.00,Sunday
16,7375772.549750391
804,22193076.17979724
853,0.0
2,6, 1, 6, 0,14, 0.00,60.00,Sunday
16,4566240.878071144
804,21447762.674787898
853,0.0
2,6, 1, 6, 0,15, 0.00,60.00,Sunday
16,7375796.251489542
804,20755491.170794524
853,0.0
2,6, 1, 6, 0,16, 0.00,60.00,Sunday
16,4566240.878071144
804,20885140.62459503
853,0.0
2,6, 1, 6, 0,17, 0.00,60.00,Sunday
16,7375786.824231053
804,21309168.467204224
853,0.0
2,6, 1, 6, 0,18, 0.00,60.00,Sunday
16,7843491.024432723
804,21023853.69771891
853,0.0
2,6, 1, 6, 0,19, 0.00,60.00,Sunday
16,7844274.445725256
804,20554590.720887054
853,0.0
2,6, 1, 6, 0,20, 0.00,60.00,Sunday
16,7843251.291993397
804,535799.0855086263
853,0.0
2,6, 1, 6, 0,21, 0.00,60.00,Sunday
16,10136065.9441406
804,2901463.450111977
853,0.0
2,6, 1, 6, 0,22, 0.00,60.00,Sunday
16,8730233.179292059
804,3827385.129872122
853,0.0
2,6, 1, 6, 0,23, 0.00,60.00,Sunday
16,7767436.658820681
804,4282039.13076859
853,0.0
2,6, 1, 6, 0,24, 0.00,60.00,Sunday
16,7767289.181971828
804,4661820.244121708
853,0.0
3,6, 1, 6, 0,Sunday
7,-3.4229166666666675,-4.6, 7,60,-2.4,19,60
8,-4.572395833333333,-7.1, 1,15,-3.0,24,60
9,-3.8650041755420497,-4.887844760743663, 2,60,-2.6504321491632616,24,60
10,16.927083333333332,0.0, 1,15,89.0,12,30
11,4.8203125,0.0, 1,15,29.0,15,30
12,171.39382734271808,0.676999179191866, 1,45,340.21418969258576,24,60
13,-19.90459616452433,-60.14617945944964, 1,45,14.937429352245028,13,45
1790,53843727.785008974,0.0, 1,15,2950320.493204977,21,15
2,7, 1, 7, 0, 1, 0.00,60.00,Monday
16,4566240.878071144
804,5051645.860609115
853,0.0
2,7, 1, 7, 0, 2, 0.00,60.00,Monday
16,4566240.878071144
804,5552368.468468482
853,0.0
2,7, 1, 7, 0, 3, 0.00,60.00,Monday
16,7220905.746551424
804,6300155.9239168875
853,0.0
2,7, 1, 7, 0, 4, 0.00,60.00,Monday
16,4566240.878071144
804,7159449.082721094
853,0.0
2,7, 1, 7, 0, 5, 0.00,60.00,Monday
16,4566240.878071144
804,8215112.568386098
853,0.0
2,7, 1, 7, 0, 6, 0.00,60.00,Monday
16,4566240.878071144
804,9062724.522626743
853,0.0
2,7, 1, 7, 0, 7, 0.00,60.00,Monday
16,8469956.145398818
804,9931156.329595493
853,0.0
2,7, 1, 7, 0, 8, 0.00,60.00,Monday
16,9174841.931744507
804,35562367.78133485
853,0.0
2,7, 1, 7, 0, 9, 0.00,60.00,Monday
16,9444983.237228043
804,31892598.051154636
853,0.0
2,7, 1, 7, 0,10, 0.00,60.00,Monday
16,8221002.27159141
804,28401245.8426942
853,0.0
2,7, 1, 7, 0,11, 0.00,60.00,Monday
16,7361963.162108414
804,25416719.58066041
853,0.0
2,7, 1, 7, 0,12, 0.00,60.00,Monday
16,7375567.501572631
804,22963180.01572931
853,0.0
2,7, 1, 7, 0,13, 0.00,60.00,Monday
16,4566240.878071144
804,21268900.709975533
853,0.0
2,7, 1, 7, 0,14, 0.00,60.00,Monday
16,7375381.278470021
804,18872315.747353476
853,0.0
2,7, 1, 7, 0,15, 0.00,60.00,Monday
16,4566240.878071144
804,16721162.86313168
853,0.0
2,7, 1, 7, 0,16, 0.00,60.00,Monday
16,7375245.5324994195
804,17732504.58861072
853,0.0
2,7, 1, 7, 0,17, 0.00,60.00,Monday
16,5702811.239540474
804,20795021.968783744
853,0.0
2,7, 1, 7, 0,18, 0.00,60.00,Monday
16,9798587.180982018
804,21468662.02950798
853,0.0
2,7, 1, 7, 0,19, 0.00,60.00,Monday
16,7843453.386144189
804,21375440.672378033
853,0.0
2,7, 1, 7, 0,20, 0.00,60.00,Monday
16,7843417.81158859
804,1000745.7708732736
853,0.0
2,7, 1, 7, 0,21, 0.00,60.00,Monday
16,7843525.536468819
804,3571577.3488678853
853,0.0
2,7, 1, 7, 0,22, 0.00,60.00,Monday
16,7768097.171758068
804,4429886.810161793
853,0.0
2,7, 1, 7, 0,23, 0.00,60.00,Monday
16,7767229.3268385045
804,4988633.848407405
853,0.0
2,7, 1, 7, 0,24, 0.00,60.00,Monday
16,7767577.487472119
804,5473423.092739248
853,0.0
3,7, 1, 7, 0,Monday
7,-5.505729166666664,-11.1, 7,60,-2.3,24,60
8,-6.389583333333333,-12.1, 7,60,-2.9, 1,60
9,-5.813797856992925,-11.366139782034363, 7,60,-2.600129425188394, 1,60
10,18.200520833333332,0.0, 1,15,84.0,12,30
11,80.8359375,0.0, 1,15,390.0,13,30
12,171.29259514926343,0.4747425056558858, 1,45,340.0772010768144,24,60
13,-19.800915512093123,-60.02709001319141, 1,45,15.057526730624629,13,45
1790,51055605.918673225,0.0, 1,15,3262481.7869832376,10,30
2,8, 1, 8, 0, 1, 0.00,60.00,Tuesday
16,7220942.154597934
804,5978023.307420663
853,0.0
2,8, 1, 8, 0, 2, 0.00,60.00,Tuesday
16,4566240.878071144
804,6406757.902456583
853,0.0
2,8, 1, 8, 0, 3, 0.00,60.00,Tuesday
16,4566240.878071144
804,6784358.8220620705
853,0.0
2,8, 1, 8, 0, 4, 0.00,60.00,Tuesday
16,7220416.872668491
804,7252218.414532552
853,0.0
2,8, 1, 8, 0, 5, 0.00,60.00,Tuesday
16,4566240.878071144
804,7605133.556326313
853,0.0
2,8, 1, 8, 0, 6, 0.00,60.00,Tuesday
16,4566240.878071144
804,7864068.070925621
853,0.0
2,8, 1, 8, 0, 7, 0.00,60.00,Tuesday
16,7768042.6663536085
804,8114394.901727419
853,0.0
2,8, 1, 8, 0, 8, 0.00,60.00,Tuesday
16,7767404.7399636125
804,32462656.86082911
853,0.0
2,8, 1, 8, 0, 9, 0.00,60.00,Tuesday
16,11839729.859827679
804,29142887.630527858
853,0.0
2,8, 1, 8, 0,10, 0.00,60.00,Tuesday
16,8203325.344724338
804,26323384.623894107
853,0.0
2,8, 1, 8, 0,11, 0.00,60.00,Tuesday
16,7375126.434655575
804,24377328.928713586
853,0.0
2,8, 1, 8, 0,12, 0.00,60.00,Tuesday
16,4566240.878071144
804,22935074.60908316
853,0.0
2,8, 1, 8, 0,13, 0.00,60.00,Tuesday
16,7375165.041845188
804,21975013.53171543
853,0.0
2,8, 1, 8, 0,14, 0.00,60.00,Tuesday
16,4566240.878071144
804,21504131.975311704
853,0.0
2,8, 1, 8, 0,15, 0.00,60.00,Tuesday
16,7375254.2634546645
804,21001320.908021793
853,0.0
2,8, 1, 8, 0,16, 0.00,60.00,Tuesday
16,6954457.8642148115
804,20677353.642872028
853,0.0
2,8, 1, 8, 0,17, 0.00,60.00,Tuesday
16,4987177.158340675
804,20491784.293227438
853,0.0
2,8, 1, 8, 0,18, 0.00,60.00,Tuesday
16,7844377.73819777
804,20078720.221565228
853,0.0
2,8, 1, 8, 0,19, 0.00,60.00,Tuesday
16,8263430.163357433
804,19590946.429226216
853,0.0
2,8, 1, 8, 0,20, 0.00,60.00,Tuesday
16,10180941.363215383
804,180266.9912475912
853,0.0
2,8, 1, 8, 0,21, 0.00,60.00,Tuesday
16,8363363.506111065
804,1619601.1765824636
853,0.0
2,8, 1, 8, 0,22, 0.00,60.00,Tuesday
16,7767336.948175827
804,2281276.5999270086
853,0.0
2,8, 1, 8, 0,23, 0.00,60.00,Tuesday
16,7768007.8757962715
804,2729584.0421863287
853,0.0
2,8, 1, 8, 0,24, 0.00,60.00,Tuesday
16,7767373.556396395
804,3132105.9910929413
853,0.0
3,8, 1, 8, 0,Tuesday
7,0.33385416666666695,-2.25, 1,15,4.0,23,60
8,-0.19583404686953979,-3.6, 7,60,4.0,23,60
9,0.1188314416176298,-2.7575005134912995, 7,60,4.0,23,60
10,6.432291666666667,0.0, 1,15,34.0,12,30
11,0.3151041666666667,0.0, 1,15,7.0,10,30
12,171.19300465716188,0.2770419467789127, 1,45,339.9474288361953,24,60
13,-19.69085628613162,-59.900432936670626, 1,45,15.184830734836614,13,45
1790,53864583.97195452,0.0, 1,30,3273295.7295154356, 9,60
2,9, 1, 9, 0, 1, 0.00,60.00,Wednesday
16,4566240.878071144
804,3465289.5217272844
853,0.0
2,9, 1, 9, 0, 2, 0.00,60.00,Wednesday
16,7220673.424992346
804,4112557.1328320587
853,0.0
2,9, 1, 9, 0, 3, 0.00,60.00,Wednesday
16,4566240.878071144
804,4873322.060176048
853,0.0
2,9, 1, 9, 0, 4, 0.00,60.00,Wednesday
16,4566240.878071144
804,5254457.801989699
853,0.0
2,9, 1, 9, 0, 5, 0.00,60.00,Wednesday
16,4566240.878071144
804,5243153.669717582
853,0.0
2,9, 1, 9, 0, 6, 0.00,60.00,Wednesday
16,7220589.840846819
804,4992449.480926903
853,0.0
2,9, 1, 9, 0, 7, 0.00,60.00,Wednesday
16,7767243.01276277
804,4933295.666611752
853,0.0
2,9, 1, 9, 0, 8, 0.00,60.00,Wednesday
16,7767948.334689429
804,30453040.925742954
853,3488.2842204571166
2,9, 1, 9, 0, 9, 0.00,60.00,Wednesday
16,8202765.861982642
804,25319464.39747375
853,0.0
2,9, 1, 9, 0,10, 0.00,60.00,Wednesday
16,11840286.809669342
804,22123311.48517038
853,0.0
2,9, 1, 9, 0,11, 0.00,60.00,Wednesday
16,4566240.878071144
804,19424212.098785132
853,0.0
2,9, 1, 9, 0,12, 0.00,60.00,Wednesday
16,7375173.202574625
804,17410364.67972997
853,0.0
2,9, 1, 9, 0,13, 0.00,60.00,Wednesday
16,4566240.878071144
804,16262365.242237266
853,0.0
2,9, 1, 9, 0,14, 0.00,60.00,Wednesday
16,7375128.439942445
804,15673328.079338782
853,0.0
2,9, 1, 9, 0,15, 0.00,60.00,Wednesday
16,6209086.82602529
804,16009975.795215191
853,0.0
2,9, 1, 9, 0,16, 0.00,60.00,Wednesday
16,5732288.280934045
804,16637736.846118605
853,0.0
2,9, 1, 9, 0,17, 0.00,60.00,Wednesday
16,7375190.605839746
804,16960684.36162373
853,0.0
2,9, 1, 9, 0,18, 0.00,60.00,Wednesday
16,7843807.375259023
804,17744111.47812297
853,0.0
2,9, 1, 9, 0,19, 0.00,60.00,Wednesday
16,7843653.586647477
804,20396767.09571436
853,0.0
2,9, 1, 9, 0,20, 0.00,60.00,Wednesday
16,7843301.935303217
804,0.0
853,0.0
2,9, 1, 9, 0,21, 0.00,60.00,Wednesday
16,7843691.182865285
804,110401.29413287215
853,0.0
2,9, 1, 9, 0,22, 0.00,60.00,Wednesday
16,8627134.842390327
804,574820.9040844591
853,0.0
2,9, 1, 9, 0,23, 0.00,60.00,Wednesday
16,9173601.85670492
804,995044.3287700784
853,0.0
2,9, 1, 9, 0,24, 0.00,60.00,Wednesday
16,8703719.015961232
804,1383864.520248252
853,0.0
3,9, 1, 9, 0,Wednesday
7,4.736458333333332,2.1, 3,60,7.6,23,60
8,4.126040580561692,1.9, 1,60,5.999997196412721,13,60
9,4.590807866781274,2.0999984741210938, 3,60,6.748006875248453,23,60
10,18.317708333333332,0.0, 1,15,94.0,12,30
11,18.375,0.0, 1,15,158.0,13,30
12,171.0951546233548,0.08415330395139851, 1,45,339.824999142154,24,60
13,-19.574463356569648,-59.76628024130013, 1,45,15.319288581092687,13,45
1790,53795653.767099336,0.0, 1,15,3273308.5705163027,10,15
2,10, 1,10, 0, 1, 0.00,60.00,Thursday
16,4566240.878071144
804,2170005.109157254
853,0.0
2,10, 1,10, 0, 2, 0.00,60.00,Thursday
16,4566240.878071144
804,2364582.3849552814
853,0.0
2,10, 1,10, 0, 3, 0.00,60.00,Thursday
16,4566240.878071144
804,3258162.9457005076
853,0.0
2,10, 1,10, 0, 4, 0.00,60.00,Thursday
16,7220803.790196789
804,3921356.068757729
853,0.0
2,10, 1,10, 0, 5, 0.00,60.00,Thursday
16,4566240.878071144
804,4247090.164571308
853,0.0
2,10, 1,10, 0, 6, 0.00,60.00,Thursday
16,4566240.878071144
804,4492663.6153768655
853,0.0
2,10, 1,10, 0, 7, 0.00,60.00,Thursday
16,7767480.262655353
804,4737599.600185335
853,0.0
2,10, 1,10, 0, 8, 0.00,60.00,Thursday
16,7767043.60479596
804,29242815.06928446
853,11854.497905947661
2,10, 1,10, 0, 9, 0.00,60.00,Thursday
16,11840253.419701463
804,25008803.325044394
853,0.0
2,10, 1,10, 0,10, 0.00,60.00,Thursday
16,8202705.468786266
804,22444436.388763957
853,0.0
2,10, 1,10, 0,11, 0.00,60.00,Thursday
16,7375778.452353797
804,19821762.977226738
853,0.0
2,10, 1,10, 0,12, 0.00,60.00,Thursday
16,4566240.878071144
804,17799549.025127016
853,0.0
2,10, 1,10, 0,13, 0.00,60.00,Thursday
16,7375802.143860307
804,16674181.079954823
853,0.0
2,10, 1,10, 0,14, 0.00,60.00,Thursday
16,4668613.991328302
804,15604977.892517207
853,0.0
2,10, 1,10, 0,15, 0.00,60.00,Thursday
16,7273350.910831805
804,15550419.962372191
853,0.0
2,10, 1,10, 0,16, 0.00,60.00,Thursday
16,7375503.260631372
804,16557930.285424478
853,0.0
2,10, 1,10, 0,17, 0.00,60.00,Thursday
16,4566240.878071144
804,17159035.330984816
853,0.0
2,10, 1,10, 0,18, 0.00,60.00,Thursday
16,7843663.68365028
804,17552366.183857363
853,0.0
2,10, 1,10, 0,19, 0.00,60.00,Thursday
16,9208355.404782157
804,17547076.76875166
853,0.0
2,10, 1,10, 0,20, 0.00,60.00,Thursday
16,9756222.149211638
804,12268.196224574824
853,0.0
2,10, 1,10, 0,21, 0.00,60.00,Thursday
16,7843454.814822847
804,903148.539378428
853,0.0
2,10, 1,10, 0,22, 0.00,60.00,Thursday
16,7767932.023355684
804,1916035.4315919643
853,0.0
2,10, 1,10, 0,23, 0.00,60.00,Thursday
16,7767592.299932766
804,2511986.3150271443
853,0.0
2,10, 1,10, 0,24, 0.00,60.00,Thursday
16,7767225.867603752
804,2687459.1780675594
853,0.0
3,10, 1,10, 0,Thursday
7,4.616666666666666,2.7,23,60,7.5249999999999995, 1,15
8,2.0005208333333333,0.2, 7,60,5.3999999999999995, 1,15
9,3.6733112254525153,2.509699567522247,23,60,6.459245160919081, 1,15
10,18.4375,0.0, 1,15,91.0,13,30
11,35.565104166666664,0.0, 1,15,199.0,10,30
12,171.00130137365522,0.1036831833804491, 1,45,339.71002178991677,24,60
13,-19.451784315637955,-59.624707977317236, 1,45,15.460844461957508,13,45
1790,51476117.959161974,0.0, 1,15,3273321.7565410743, 9,15
2,11, 1,11, 0, 1, 0.00,60.00,Friday
16,4566240.878071144
804,2796164.709980891
853,0.0
2,11, 1,11, 0, 2, 0.00,60.00,Friday
16,7220373.22771422
804,3115156.442636747
853,0.0
2,11, 1,11, 0, 3, 0.00,60.00,Friday
16,4566240.878071144
804,3576294.6348467125
853,0.0
2,11, 1,11, 0, 4, 0.00,60.00,Friday
16,4566240.878071144
804,4174601.283133887
853,0.0
2,11, 1,11, 0, 5, 0.00,60.00,Friday
16,4566240.878071144
804,4775178.621182407
853,0.0
2,11, 1,11, 0, 6, 0.00,60.00,Friday
16,7220897.155836893
804,5111893.275630074
853,0.0
2,11, 1,11, 0, 7, 0.00,60.00,Friday
16,7767804.707793441
804,5175121.084384373
853,0.0
2,11, 1,11, 0, 8, 0.00,60.00,Friday
16,7767860.5860033855
804,29800475.965012986
853,8323.854917297384
2,11, 1,11, 0, 9, 0.00,60.00,Friday
16,8414484.874928262
804,25297344.690588795
853,0.0
2,11, 1,11, 0,10, 0.00,60.00,Friday
16,11628411.58658808
804,22570443.68634615
853,0.0
2,11, 1,11, 0,11, 0.00,60.00,Friday
16,4566240.878071144
804,19965537.154956054
853,0.0
2,11, 1,11, 0,12, 0.00,60.00,Friday
16,7375739.356713574
804,18371753.83585102
853,0.0
2,11, 1,11, 0,13, 0.00,60.00,Friday
16,4566240.878071144
804,17292994.31660741
853,0.0
2,11, 1,11, 0,14, 0.00,60.00,Friday
16,7375763.108170519
804,15493400.636042433
853,0.0
2,11, 1,11, 0,15, 0.00,60.00,Friday
16,7375786.823197994
804,13315202.839982864
853,0.0
2,11, 1,11, 0,16, 0.00,60.00,Friday
16,4566240.878071144
804,14226880.38593778
853,0.0
2,11, 1,11, 0,17, 0.00,60.00,Friday
16,7375810.501877168
804,17158162.08671002
853,0.0
2,11, 1,11, 0,18, 0.00,60.00,Friday
16,7844282.830546027
804,17738976.308039952
853,0.0
2,11, 1,11, 0,19, 0.00,60.00,Friday
16,7843458.8224152
804,17749699.690344334
853,0.0
2,11, 1,11, 0,20, 0.00,60.00,Friday
16,7843286.922390179
804,89794.6654141212
853,0.0
2,11, 1,11, 0,21, 0.00,60.00,Friday
16,8288029.619656885
804,1310597.755067944
853,0.0
2,11, 1,11, 0,22, 0.00,60.00,Friday
16,9173732.967821904
804,2395525.0397771867
853,0.0
2,11, 1,11, 0,23, 0.00,60.00,Friday
16,9128621.289598323
804,3250579.863369501
853,0.0
2,11, 1,11, 0,24, 0.00,60.00,Friday
16,7767700.965258988
804,3647007.8031775374
853,0.0
3,11, 1,11, 0,Friday
7,3.1302083333333326,2.1,23,60,4.4,15,60
8,1.0171875000000001,0.1, 7,60,2.4, 3,60
9,2.372332722381356,1.54409270954401,23,60,3.567697330803043, 1,60
10,16.3828125,0.0, 1,15,76.0,13,30
11,100.76822916666667,0.0, 1,15,475.0,13,30
12,170.9110217294324,0.2862432384600441, 1,45,339.602590374645,24,60
13,-19.322869432033745,-59.47579603669277, 1,45,15.609439599683608,13,45
1790,53807355.37737142,0.0, 1,15,3273334.9897562303, 9,30