Program Version,EnergyPlus, Version 23.2.0-7636e6b3e9, YMD=2025.01.12 04:51
1,5,Environment Title[],Latitude[deg],Longitude[deg],Time Zone[],Elevation[m]
2,8,Day of Simulation[],Month[],Day of Month[],DST Indicator[1=yes 0=no],Hour[],StartMinute[],EndMinute[],DayType
3,5,Cumulative Day of Simulation[],Month[],Day of Month[],DST Indicator[1=yes 0=no],DayType  ! When Daily Report Variables Requested
4,2,Cumulative Days of Simulation[],Month[]  ! When Monthly Report Variables Requested
5,1,Cumulative Days of Simulation[] ! When Run Period Report Variables Requested
6,1,Calendar Year of Simulation[] ! When Annual Report Variables Requested
7,7,Environment,Site Outdoor Air Drybulb Temperature [C] !Daily [Value,Min,Hour,Minute,Max,Hour,Minute]
8,7,Environment,Site Outdoor Air Dewpoint Temperature [C] !Daily [Value,Min,Hour,Minute,Max,Hour,Minute]
9,7,Environment,Site Outdoor Air Wetbulb Temperature [C] !Daily [Value,Min,Hour,Minute,Max,Hour,Minute]
10,7,Environment,Site Diffuse Solar Radiation Rate per Area [W/m2] !Daily [Value,Min,Hour,Minute,Max,Hour,Minute]
11,7,Environment,Site Direct Solar Radiation Rate per Area [W/m2] !Daily [Value,Min,Hour,Minute,Max,Hour,Minute]
12,7,Environment,Site Solar Azimuth Angle [deg] !Daily [Value,Min,Hour,Minute,Max,Hour,Minute]
13,7,Environment,Site Solar Altitude Angle [deg] !Daily [Value,Min,Hour,Minute,Max,Hour,Minute]
993,7,MYDHW_0_WATERHEATER,Water Heater Heating Energy [J] !Daily [Value,Min,Hour,Minute,Max,Hour,Minute]
469,1,Heating:EnergyTransfer [J] !Hourly
518,1,Cooling:EnergyTransfer [J] !Hourly
16,1,Electricity:Facility [J] !Hourly
End of Data Dictionary
1,RUN PERIOD 1,  52.46,   5.52,   1.00,  -3.90
2,1, 1, 1, 0, 1, 0.00,60.00,Tuesday
16,1712339.9184327582
469,3079022.3190845205
518,0.0
2,1, 1, 1, 0, 2, 0.00,60.00,Tuesday
16,1712339.9184327582
469,3274234.2898411085
518,0.0
2,1, 1, 1, 0, 3, 0.00,60.00,Tuesday
16,1712339.9184327582
469,3466897.681328824
518,0.0
2,1, 1, 1, 0, 4, 0.00,60.00,Tuesday
16,4366798.154495369
469,3663792.2957205866
518,0.0
2,1, 1, 1, 0, 5, 0.00,60.00,Tuesday
16,1712339.9184327582
469,3827919.2068164544
518,0.0
2,1, 1, 1, 0, 6, 0.00,60.00,Tuesday
16,1712339.9184327582
469,3993173.1450937223
518,0.0
2,1, 1, 1, 0, 7, 0.00,60.00,Tuesday
16,4614360.8506907625
469,5033558.773418869
518,0.0
2,1, 1, 1, 0, 8, 0.00,60.00,Tuesday
16,4615035.190281886
469,15626520.4122745
518,0.0
2,1, 1, 1, 0, 9, 0.00,60.00,Tuesday
16,4700824.655157049
469,14884434.656060047
518,0.0
2,1, 1, 1, 0,10, 0.00,60.00,Tuesday
16,3877910.3187464033
469,12670365.924263582
518,0.0
2,1, 1, 1, 0,11, 0.00,60.00,Tuesday
16,2585313.4296195526
469,11437518.242991945
518,0.0
2,1, 1, 1, 0,12, 0.00,60.00,Tuesday
16,1712339.9184327582
469,11109196.569770608
518,0.0
2,1, 1, 1, 0,13, 0.00,60.00,Tuesday
16,4441839.509949602
469,11053681.54961422
518,0.0
2,1, 1, 1, 0,14, 0.00,60.00,Tuesday
16,1712339.9184327582
469,11188933.6628762
518,0.0
2,1, 1, 1, 0,15, 0.00,60.00,Tuesday
16,4442248.122203369
469,11086875.357696353
518,0.0
2,1, 1, 1, 0,16, 0.00,60.00,Tuesday
16,1712339.9184327582
469,11519463.01827633
518,0.0
2,1, 1, 1, 0,17, 0.00,60.00,Tuesday
16,4097644.0827673655
469,12356844.309723062
518,0.0
2,1, 1, 1, 0,18, 0.00,60.00,Tuesday
16,2082877.9618492392
469,12473662.455622122
518,0.0
2,1, 1, 1, 0,19, 0.00,60.00,Tuesday
16,4645261.732843636
469,12321956.125180217
518,0.0
2,1, 1, 1, 0,20, 0.00,60.00,Tuesday
16,4645370.256575585
469,1651203.8570480708
518,0.0
2,1, 1, 1, 0,21, 0.00,60.00,Tuesday
16,4645708.127715416
469,3275583.1680287737
518,0.0
2,1, 1, 1, 0,22, 0.00,60.00,Tuesday
16,1712339.9184327582
469,3513320.0511230472
518,0.0
2,1, 1, 1, 0,23, 0.00,60.00,Tuesday
16,4614629.478490242
469,2842104.010110677
518,0.0
2,1, 1, 1, 0,24, 0.00,60.00,Tuesday
16,4614701.27588248
469,2958861.273009129
518,0.0
3,1, 1, 1, 0,Tuesday
7,2.891666666666666,1.4,16,60,4.2, 1,60
8,-0.03749999999999998,-2.5,10,60,2.1,24,60
9,1.854739388525906,0.4001495373206364,13,60,3.0998073170807516, 1,60
10,17.307291666666668,0.0, 1,15,86.0,12,30
11,26.854166666666668,0.0, 1,15,152.0,10,30
12,171.9210012821981,1.7466514206994332, 1,45,341.00180793165543,24,60
13,-20.325946072972584,-60.625898049216175, 1,45,14.446671545683287,13,45
993,33574881.93369892,0.0, 1,15,2689636.263051862, 9,60
2,2, 1, 2, 0, 1, 0.00,60.00,Wednesday
16,1712339.9184327582
469,3437239.6200315487
518,0.0
2,2, 1, 2, 0, 2, 0.00,60.00,Wednesday
16,1712339.9184327582
469,3672485.5356978346
518,0.0
2,2, 1, 2, 0, 3, 0.00,60.00,Wednesday
16,4366615.9434699705
469,3770054.759200145
518,0.0
2,2, 1, 2, 0, 4, 0.00,60.00,Wednesday
16,1712339.9184327582
469,4004884.8633484114
518,0.0
2,2, 1, 2, 0, 5, 0.00,60.00,Wednesday
16,1712339.9184327582
469,4008989.89904456
518,0.0
2,2, 1, 2, 0, 6, 0.00,60.00,Wednesday
16,1712339.9184327582
469,4025147.0725558503
518,0.0
2,2, 1, 2, 0, 7, 0.00,60.00,Wednesday
16,4614989.542284997
469,4966177.455195219
518,0.0
2,2, 1, 2, 0, 8, 0.00,60.00,Wednesday
16,4614311.171420363
469,15291668.74071995
518,0.0
2,2, 1, 2, 0, 9, 0.00,60.00,Wednesday
16,4781362.145050134
469,14168974.559496272
518,0.0
2,2, 1, 2, 0,10, 0.00,60.00,Wednesday
16,4780809.241873831
469,12234408.758793369
518,0.0
2,2, 1, 2, 0,11, 0.00,60.00,Wednesday
16,1712339.9184327582
469,10399101.22135549
518,0.0
2,2, 1, 2, 0,12, 0.00,60.00,Wednesday
16,4441646.804284662
469,8800005.477284797
518,0.0
2,2, 1, 2, 0,13, 0.00,60.00,Wednesday
16,1712339.9184327582
469,7618298.283280633
518,0.0
2,2, 1, 2, 0,14, 0.00,60.00,Wednesday
16,1734607.584971952
469,6750875.398309084
518,0.0
2,2, 1, 2, 0,15, 0.00,60.00,Wednesday
16,4419996.502902068
469,6172072.723539816
518,0.0
2,2, 1, 2, 0,16, 0.00,60.00,Wednesday
16,1712339.9184327582
469,7275182.675474277
518,0.0
2,2, 1, 2, 0,17, 0.00,60.00,Wednesday
16,4442212.0477334
469,9054591.475339876
518,0.0
2,2, 1, 2, 0,18, 0.00,60.00,Wednesday
16,4211818.74373972
469,9794558.20208411
518,0.0
2,2, 1, 2, 0,19, 0.00,60.00,Wednesday
16,2146044.7376111504
469,10350638.675263206
518,0.0
2,2, 1, 2, 0,20, 0.00,60.00,Wednesday
16,4644995.061462305
469,899596.8495236394
518,0.0
2,2, 1, 2, 0,21, 0.00,60.00,Wednesday
16,4645329.826399099
469,2478550.7698316043
518,0.0
2,2, 1, 2, 0,22, 0.00,60.00,Wednesday
16,4614983.082759162
469,2894172.8223120105
518,0.0
2,2, 1, 2, 0,23, 0.00,60.00,Wednesday
16,1712339.9184327582
469,2313737.86159135
518,0.0
2,2, 1, 2, 0,24, 0.00,60.00,Wednesday
16,4614312.51932891
469,2667321.1112804753
518,0.0
3,2, 1, 2, 0,Wednesday
7,3.686458333333334,2.7,19,60,4.7,15,60
8,0.859375,-2.5,24,60,3.0, 8,60
9,2.7411140405471186,1.1746816380023941, 1,60,3.8128607493951674, 8,60
10,16.630208333333332,0.0, 1,15,76.0,12,30
11,62.854166666666664,0.0, 1,15,310.0,15,30
12,171.8131188905313,1.5259563868488346, 1,45,340.83120702053344,24,60
13,-20.25473323294449,-60.545572589949266, 1,45,14.530053212951353,13,45
993,33650042.56092032,0.0, 1,15,2757577.571722917, 9,45
2,3, 1, 3, 0, 1, 0.00,60.00,Thursday
16,1712339.9184327582
469,2914598.205759381
518,0.0
2,3, 1, 3, 0, 2, 0.00,60.00,Thursday
16,4367005.263096872
469,3110619.2149283364
518,0.0
2,3, 1, 3, 0, 3, 0.00,60.00,Thursday
16,1712339.9184327582
469,3219917.8564118
518,0.0
2,3, 1, 3, 0, 4, 0.00,60.00,Thursday
16,1712339.9184327582
469,3431864.8635261008
518,0.0
2,3, 1, 3, 0, 5, 0.00,60.00,Thursday
16,1712339.9184327582
469,3568473.6231236835
518,0.0
2,3, 1, 3, 0, 6, 0.00,60.00,Thursday
16,4366528.408920664
469,3789799.805374106
518,0.0
2,3, 1, 3, 0, 7, 0.00,60.00,Thursday
16,2047305.5217669779
469,5235204.933235638
518,0.0
2,3, 1, 3, 0, 8, 0.00,60.00,Thursday
16,4278982.514212367
469,15474866.128160901
518,0.0
2,3, 1, 3, 0, 9, 0.00,60.00,Thursday
16,4781534.242515248
469,14615327.947060682
518,0.0
2,3, 1, 3, 0,10, 0.00,60.00,Thursday
16,4781387.565738223
469,11458498.797363766
518,0.0
2,3, 1, 3, 0,11, 0.00,60.00,Thursday
16,3331632.709100439
469,8441067.981762469
518,0.0
2,3, 1, 3, 0,12, 0.00,60.00,Thursday
16,2822359.0691643115
469,6272307.183424338
518,0.0
2,3, 1, 3, 0,13, 0.00,60.00,Thursday
16,1712339.9184327582
469,4949554.613974411
518,0.0
2,3, 1, 3, 0,14, 0.00,60.00,Thursday
16,4441978.527342079
469,4457200.441514647
518,0.0
2,3, 1, 3, 0,15, 0.00,60.00,Thursday
16,1712339.9184327582
469,4742696.649130315
518,0.0
2,3, 1, 3, 0,16, 0.00,60.00,Thursday
16,4442233.935145383
469,6917659.936513242
518,0.0
2,3, 1, 3, 0,17, 0.00,60.00,Thursday
16,1712339.9184327582
469,9443855.886398837
518,0.0
2,3, 1, 3, 0,18, 0.00,60.00,Thursday
16,4645411.032379652
469,10551539.843845312
518,0.0
2,3, 1, 3, 0,19, 0.00,60.00,Thursday
16,4645934.518991146
469,11176506.672230776
518,0.0
2,3, 1, 3, 0,20, 0.00,60.00,Thursday
16,1712339.9184327582
469,1531967.5763255968
518,0.0
2,3, 1, 3, 0,21, 0.00,60.00,Thursday
16,4645917.913022781
469,3437735.454093539
518,0.0
2,3, 1, 3, 0,22, 0.00,60.00,Thursday
16,4614542.480310551
469,3939288.775197939
518,0.0
2,3, 1, 3, 0,23, 0.00,60.00,Thursday
16,4614812.571657654
469,2999142.792385661
518,0.0
2,3, 1, 3, 0,24, 0.00,60.00,Thursday
16,1712339.9184327582
469,3142476.0360143394
518,0.0
3,3, 1, 3, 0,Thursday
7,1.1666666666666665,-1.0,19,60,2.775, 1,15
8,-0.6007504992247794,-2.2,13,60,1.3,24,60
9,0.3890060654580482,-1.321738782587282,19,60,2.1129291271731074, 1,15
10,14.333333333333334,0.0, 1,15,65.0,13,30
11,122.921875,0.0, 1,15,558.0,13,30
12,171.70635220439564,1.3083254005832814, 1,45,340.6669445746221,24,60
13,-20.176959693862347,-60.45738645598138, 1,45,14.6208584194948,13,45
993,33428220.74718568,0.0, 1,15,2762274.891674242, 9,30
2,4, 1, 4, 0, 1, 0.00,60.00,Friday
16,4367002.434258111
469,3757560.1289379946
518,0.0
2,4, 1, 4, 0, 2, 0.00,60.00,Friday
16,1712339.9184327582
469,4274088.8003907185
518,0.0
2,4, 1, 4, 0, 3, 0.00,60.00,Friday
16,1712339.9184327582
469,4523132.602617763
518,0.0
2,4, 1, 4, 0, 4, 0.00,60.00,Friday
16,2479211.3489274867
469,4774366.85934189
518,0.0
2,4, 1, 4, 0, 5, 0.00,60.00,Friday
16,3599685.0390400505
469,5116222.695290542
518,0.0
2,4, 1, 4, 0, 6, 0.00,60.00,Friday
16,1712339.9184327582
469,5411275.881837221
518,0.0
2,4, 1, 4, 0, 7, 0.00,60.00,Friday
16,4614962.183670831
469,7204548.2967829835
518,0.0
2,4, 1, 4, 0, 8, 0.00,60.00,Friday
16,2991681.350215731
469,17509754.288275458
518,0.0
2,4, 1, 4, 0, 9, 0.00,60.00,Friday
16,3876615.8698589774
469,16331658.652998403
518,0.0
2,4, 1, 4, 0,10, 0.00,60.00,Friday
16,4333653.181056533
469,12888709.597438434
518,0.0
2,4, 1, 4, 0,11, 0.00,60.00,Friday
16,4442216.4854261875
469,9950516.328181244
518,0.0
2,4, 1, 4, 0,12, 0.00,60.00,Friday
16,1712339.9184327582
469,7800298.258873127
518,0.0
2,4, 1, 4, 0,13, 0.00,60.00,Friday
16,4441701.257839054
469,6300682.854093208
518,0.0
2,4, 1, 4, 0,14, 0.00,60.00,Friday
16,1712339.9184327582
469,5644695.41401068
518,0.0
2,4, 1, 4, 0,15, 0.00,60.00,Friday
16,4441839.372110011
469,6039043.467402037
518,0.0
2,4, 1, 4, 0,16, 0.00,60.00,Friday
16,1712339.9184327582
469,8261174.703373176
518,0.0
2,4, 1, 4, 0,17, 0.00,60.00,Friday
16,1712339.9184327582
469,10816061.814218953
518,0.0
2,4, 1, 4, 0,18, 0.00,60.00,Friday
16,4645962.221267813
469,11929099.572813187
518,0.0
2,4, 1, 4, 0,19, 0.00,60.00,Friday
16,4645871.438717135
469,12531662.326761566
518,0.0
2,4, 1, 4, 0,20, 0.00,60.00,Friday
16,4645456.99639406
469,2777528.296776685
518,0.0
2,4, 1, 4, 0,21, 0.00,60.00,Friday
16,3390959.144171117
469,5425576.415600396
518,0.0
2,4, 1, 4, 0,22, 0.00,60.00,Friday
16,2953211.8030164232
469,6183439.333958214
518,0.0
2,4, 1, 4, 0,23, 0.00,60.00,Friday
16,4615005.3143493
469,5208664.932032296
518,0.0
2,4, 1, 4, 0,24, 0.00,60.00,Friday
16,4614316.61393314
469,5600909.028285375
518,0.0
3,4, 1, 4, 0,Friday
7,-2.370833333333333,-5.0,23,60,0.5999999999999999, 1,15
8,-3.617708333333334,-7.7,24,60,0.3750000000000001, 1,15
9,-2.8442852708335775,-5.828734757976214,24,60,0.4861570244684519, 1,15
10,14.375,0.0, 1,15,66.0,13,30
11,129.13541666666666,0.0, 1,15,576.0,13,30
12,171.60081020210077,1.0940828941618326, 1,45,340.50922888156305,24,60
13,-20.09265613455602,-60.36138875158809, 1,45,14.71905019080346,13,45
993,35990616.09680557,0.0, 1,15,2640260.07255155,18,15
2,5, 1, 5, 0, 1, 0.00,60.00,Saturday
16,1712339.9184327582
469,5738476.094257392
518,0.0
2,5, 1, 5, 0, 2, 0.00,60.00,Saturday
16,1712339.9184327582
469,5928432.732895784
518,0.0
2,5, 1, 5, 0, 3, 0.00,60.00,Saturday
16,2175884.5525069004
469,6228933.278163057
518,0.0
2,5, 1, 5, 0, 4, 0.00,60.00,Saturday
16,3903158.511571383
469,6512399.947565928
518,0.0
2,5, 1, 5, 0, 5, 0.00,60.00,Saturday
16,1712339.9184327582
469,6758950.061371401
518,0.0
2,5, 1, 5, 0, 6, 0.00,60.00,Saturday
16,1712339.9184327582
469,7019921.46840287
518,0.0
2,5, 1, 5, 0, 7, 0.00,60.00,Saturday
16,4614547.615810526
469,9019445.367321715
518,0.0
2,5, 1, 5, 0, 8, 0.00,60.00,Saturday
16,4614804.773668785
469,19971556.32957729
518,0.0
2,5, 1, 5, 0, 9, 0.00,60.00,Saturday
16,4780881.31795058
469,18606390.651652817
518,0.0
2,5, 1, 5, 0,10, 0.00,60.00,Saturday
16,4781543.12720646
469,15190512.060591888
518,0.0
2,5, 1, 5, 0,11, 0.00,60.00,Saturday
16,1712339.9184327582
469,12174652.09933424
518,0.0
2,5, 1, 5, 0,12, 0.00,60.00,Saturday
16,1865687.9648003594
469,10007700.54992701
518,0.0
2,5, 1, 5, 0,13, 0.00,60.00,Saturday
16,4288803.830477553
469,8573167.837085448
518,0.0
2,5, 1, 5, 0,14, 0.00,60.00,Saturday
16,1712339.9184327582
469,7873065.27829748
518,0.0
2,5, 1, 5, 0,15, 0.00,60.00,Saturday
16,4442219.891608182
469,8327388.278793926
518,0.0
2,5, 1, 5, 0,16, 0.00,60.00,Saturday
16,1712339.9184327582
469,10441194.659848314
518,0.0
2,5, 1, 5, 0,17, 0.00,60.00,Saturday
16,4441718.490259737
469,12683242.374822129
518,0.0
2,5, 1, 5, 0,18, 0.00,60.00,Saturday
16,1712339.9184327582
469,13588655.598985719
518,0.0
2,5, 1, 5, 0,19, 0.00,60.00,Saturday
16,4645968.3230842715
469,13956180.145034583
518,0.0
2,5, 1, 5, 0,20, 0.00,60.00,Saturday
16,4645064.294444547
469,3448051.4470354607
518,0.0
2,5, 1, 5, 0,21, 0.00,60.00,Saturday
16,4645507.980073932
469,5733668.52989679
518,0.0
2,5, 1, 5, 0,22, 0.00,60.00,Saturday
16,2321484.0022579394
469,6263825.616188781
518,0.0
2,5, 1, 5, 0,23, 0.00,60.00,Saturday
16,4005436.816896905
469,5049523.503250967
518,0.0
2,5, 1, 5, 0,24, 0.00,60.00,Saturday
16,4614759.754432111
469,5332754.135631014
518,0.0
3,5, 1, 5, 0,Saturday
7,-4.088541666666665,-5.5, 7,60,-2.8,13,60
8,-7.080208333333332,-7.45, 1,15,-6.7, 1,60
9,-5.141229228510597,-6.135298049949361, 7,60,-4.298956651781032,13,60
10,14.5703125,0.0, 1,15,65.0,13,30
11,132.4921875,0.0, 1,15,603.0,13,30
12,171.49660012976298,0.8835410953785034, 1,45,340.35825202416595,24,60
13,-20.001856138640335,-60.257633494339274, 1,45,14.82458830946985,13,45
993,33651029.29691344,0.0, 1,15,2752850.0675541842,10,60
2,6, 1, 6, 0, 1, 0.00,60.00,Sunday
16,1712339.9184327582
469,5568011.26932998
518,0.0
2,6, 1, 6, 0, 2, 0.00,60.00,Sunday
16,1712339.9184327582
469,5792391.228975807
518,0.0
2,6, 1, 6, 0, 3, 0.00,60.00,Sunday
16,4367000.313870424
469,5976872.28810562
518,0.0
2,6, 1, 6, 0, 4, 0.00,60.00,Sunday
16,1712339.9184327582
469,6121101.677182555
518,0.0
2,6, 1, 6, 0, 5, 0.00,60.00,Sunday
16,1712339.9184327582
469,6260896.1384933125
518,0.0
2,6, 1, 6, 0, 6, 0.00,60.00,Sunday
16,4366580.09253941
469,6376087.757439403
518,0.0
2,6, 1, 6, 0, 7, 0.00,60.00,Sunday
16,1712339.9184327582
469,8131773.580085321
518,0.0
2,6, 1, 6, 0, 8, 0.00,60.00,Sunday
16,4614184.564204353
469,18968334.03452117
518,0.0
2,6, 1, 6, 0, 9, 0.00,60.00,Sunday
16,4780752.290350951
469,17742560.57725232
518,0.0
2,6, 1, 6, 0,10, 0.00,60.00,Sunday
16,4780829.818269672
469,16477744.63695369
518,0.0
2,6, 1, 6, 0,11, 0.00,60.00,Sunday
16,1712339.9184327582
469,15437734.96714367
518,0.0
2,6, 1, 6, 0,12, 0.00,60.00,Sunday
16,4441912.400859496
469,14450055.484242026
518,0.0
2,6, 1, 6, 0,13, 0.00,60.00,Sunday
16,1712339.9184327582
469,13978838.986605838
518,0.0
2,6, 1, 6, 0,14, 0.00,60.00,Sunday
16,4442240.226428891
469,13821535.806928452
518,0.0
2,6, 1, 6, 0,15, 0.00,60.00,Sunday
16,1712339.9184327582
469,13547758.235382425
518,0.0
2,6, 1, 6, 0,16, 0.00,60.00,Sunday
16,3965670.008632087
469,13710977.576781986
518,0.0
2,6, 1, 6, 0,17, 0.00,60.00,Sunday
16,2188534.689728045
469,13972071.027783537
518,0.0
2,6, 1, 6, 0,18, 0.00,60.00,Sunday
16,4645399.447228352
469,13899024.125761576
518,0.0
2,6, 1, 6, 0,19, 0.00,60.00,Sunday
16,3232193.249815083
469,13719973.616271522
518,0.0
2,6, 1, 6, 0,20, 0.00,60.00,Sunday
16,3125171.6783654103
469,2865817.0708252965
518,0.0
2,6, 1, 6, 0,21, 0.00,60.00,Sunday
16,4645427.992522397
469,5061176.048188289
518,0.0
2,6, 1, 6, 0,22, 0.00,60.00,Sunday
16,4614989.589292656
469,5523165.004025129
518,0.0
2,6, 1, 6, 0,23, 0.00,60.00,Sunday
16,3234928.996165675
469,4365924.111021904
518,0.0
2,6, 1, 6, 0,24, 0.00,60.00,Sunday
16,3091722.0910057295
469,4617165.828779202
518,0.0
3,6, 1, 6, 0,Sunday
7,-3.4229166666666675,-4.6, 7,60,-2.4,19,60
8,-4.572395833333333,-7.1, 1,15,-3.0,24,60
9,-3.8650041755420497,-4.887844760743663, 2,60,-2.6504321491632616,24,60
10,16.927083333333332,0.0, 1,15,89.0,12,30
11,4.8203125,0.0, 1,15,29.0,15,30
12,171.39382734271808,0.676999179191866, 1,45,340.21418969258576,24,60
13,-19.90459616452433,-60.14617945944964, 1,45,14.937429352245028,13,45
993,33426088.878919054,0.0, 1,15,2612384.7037739074,22,45
2,7, 1, 7, 0, 1, 0.00,60.00,Monday
16,4366995.669479884
469,4822318.536390916
518,0.0
2,7, 1, 7, 0, 2, 0.00,60.00,Monday
16,1712339.9184327582
469,5151822.126713017
518,0.0
2,7, 1, 7, 0, 3, 0.00,60.00,Monday
16,1712339.9184327582
469,5668225.677407369
518,0.0
2,7, 1, 7, 0, 4, 0.00,60.00,Monday
16,1712339.9184327582
469,6244907.2962655835
518,0.0
2,7, 1, 7, 0, 5, 0.00,60.00,Monday
16,4366639.5876743775
469,6910751.490124822
518,0.0
2,7, 1, 7, 0, 6, 0.00,60.00,Monday
16,1712339.9184327582
469,7472022.046145055
518,0.0
2,7, 1, 7, 0, 7, 0.00,60.00,Monday
16,4614712.715601379
469,10275695.312929507
518,0.0
2,7, 1, 7, 0, 8, 0.00,60.00,Monday
16,1712339.9184327582
469,21518972.19585302
518,0.0
2,7, 1, 7, 0, 9, 0.00,60.00,Monday
16,4781296.101404091
469,19674643.898299057
518,0.0
2,7, 1, 7, 0,10, 0.00,60.00,Monday
16,4780785.864463861
469,16762778.958873965
518,0.0
2,7, 1, 7, 0,11, 0.00,60.00,Monday
16,4441727.544502418
469,14250289.25464951
518,0.0
2,7, 1, 7, 0,12, 0.00,60.00,Monday
16,1712339.9184327582
469,11905741.898451045
518,0.0
2,7, 1, 7, 0,13, 0.00,60.00,Monday
16,4442263.8999814
469,10316405.720645647
518,0.0
2,7, 1, 7, 0,14, 0.00,60.00,Monday
16,1712339.9184327582
469,9380395.657153832
518,0.0
2,7, 1, 7, 0,15, 0.00,60.00,Monday
16,1712339.9184327582
469,9429944.454318475
518,0.0
2,7, 1, 7, 0,16, 0.00,60.00,Monday
16,4442128.828691047
469,10899450.863454899
518,0.0
2,7, 1, 7, 0,17, 0.00,60.00,Monday
16,1712339.9184327582
469,12872335.277577654
518,0.0
2,7, 1, 7, 0,18, 0.00,60.00,Monday
16,4645533.09742719
469,13522360.194589429
518,0.0
2,7, 1, 7, 0,19, 0.00,60.00,Monday
16,4645981.187940499
469,13717921.81607588
518,0.0
2,7, 1, 7, 0,20, 0.00,60.00,Monday
16,4645890.300788499
469,3083919.0714113475
518,0.0
2,7, 1, 7, 0,21, 0.00,60.00,Monday
16,1712339.9184327582
469,5324092.090511651
518,0.0
2,7, 1, 7, 0,22, 0.00,60.00,Monday
16,4614581.807265175
469,5758746.538616816
518,0.0
2,7, 1, 7, 0,23, 0.00,60.00,Monday
16,4614758.314507162
469,4579789.395606164
518,0.0
2,7, 1, 7, 0,24, 0.00,60.00,Monday
16,4168248.526538657
469,4860361.670033513
518,0.0
3,7, 1, 7, 0,Monday
7,-5.505729166666664,-11.1, 7,60,-2.3,24,60
8,-6.389583333333333,-12.1, 7,60,-2.9, 1,60
9,-5.813797856992925,-11.366139782034363, 7,60,-2.600129425188394, 1,60
10,18.200520833333332,0.0, 1,15,84.0,12,30
11,80.8359375,0.0, 1,15,390.0,13,30
12,171.29259514926343,0.4747425056558858, 1,45,340.0772010768144,24,60
13,-19.800915512093123,-60.02709001319141, 1,45,15.057526730624629,13,45
993,35638906.12938632,0.0, 1,15,2689174.014299739, 9,15
2,8, 1, 8, 0, 1, 0.00,60.00,Tuesday
16,2119826.4724427764
469,5117000.3913791375
518,0.0
2,8, 1, 8, 0, 2, 0.00,60.00,Tuesday
16,1712339.9184327582
469,5328474.414550502
518,0.0
2,8, 1, 8, 0, 3, 0.00,60.00,Tuesday
16,1712339.9184327582
469,5512272.987394183
518,0.0
2,8, 1, 8, 0, 4, 0.00,60.00,Tuesday
16,4367039.346187917
469,5729723.573931202
518,0.0
2,8, 1, 8, 0, 5, 0.00,60.00,Tuesday
16,1712339.9184327582
469,5882934.882839508
518,0.0
2,8, 1, 8, 0, 6, 0.00,60.00,Tuesday
16,1712339.9184327582
469,6012248.296602266
518,0.0
2,8, 1, 8, 0, 7, 0.00,60.00,Tuesday
16,4614331.788942758
469,7589042.534596847
518,0.0
2,8, 1, 8, 0, 8, 0.00,60.00,Tuesday
16,4615019.32735401
469,18345908.59230706
518,0.0
2,8, 1, 8, 0, 9, 0.00,60.00,Tuesday
16,4598790.165310552
469,16881783.468770698
518,0.0
2,8, 1, 8, 0,10, 0.00,60.00,Tuesday
16,3877770.24036218
469,15561608.249747232
518,0.0
2,8, 1, 8, 0,11, 0.00,60.00,Tuesday
16,2676013.5005521597
469,14688382.247911878
518,0.0
2,8, 1, 8, 0,12, 0.00,60.00,Tuesday
16,1712339.9184327582
469,14073041.907498978
518,0.0
2,8, 1, 8, 0,13, 0.00,60.00,Tuesday
16,4441888.412250943
469,13667391.226120846
518,0.0
2,8, 1, 8, 0,14, 0.00,60.00,Tuesday
16,1712339.9184327582
469,13484579.092099793
518,0.0
2,8, 1, 8, 0,15, 0.00,60.00,Tuesday
16,4442242.694112444
469,13249620.186809199
518,0.0
2,8, 1, 8, 0,16, 0.00,60.00,Tuesday
16,1712339.9184327582
469,13136098.929082932
518,0.0
2,8, 1, 8, 0,17, 0.00,60.00,Tuesday
16,4006913.487882752
469,13131391.387238262
518,0.0
2,8, 1, 8, 0,18, 0.00,60.00,Tuesday
16,2180438.975258608
469,12950939.815693926
518,0.0
2,8, 1, 8, 0,19, 0.00,60.00,Tuesday
16,4645248.095461167
469,12707790.893931355
518,0.0
2,8, 1, 8, 0,20, 0.00,60.00,Tuesday
16,4645409.058335304
469,1842956.3850908275
518,0.0
2,8, 1, 8, 0,21, 0.00,60.00,Tuesday
16,4645786.59393253
469,3478566.82261151
518,0.0
2,8, 1, 8, 0,22, 0.00,60.00,Tuesday
16,1712339.9184327582
469,3603825.7262719413
518,0.0
2,8, 1, 8, 0,23, 0.00,60.00,Tuesday
16,4614566.346276635
469,2891332.9943044325
518,0.0
2,8, 1, 8, 0,24, 0.00,60.00,Tuesday
16,4614778.784356279
469,3139299.16725117
518,0.0
3,8, 1, 8, 0,Tuesday
7,0.33385416666666695,-2.25, 1,15,4.0,23,60
8,-0.19583404686953979,-3.6, 7,60,4.0,23,60
9,0.1188314416176298,-2.7575005134912995, 7,60,4.0,23,60
10,6.432291666666667,0.0, 1,15,34.0,12,30
11,0.3151041666666667,0.0, 1,15,7.0,10,30
12,171.19300465716188,0.2770419467789127, 1,45,339.9474288361953,24,60
13,-19.69085628613162,-59.900432936670626, 1,45,15.184830734836614,13,45
993,33937762.1346854,0.0, 1,30,2612411.468029127, 8,60
2,9, 1, 9, 0, 1, 0.00,60.00,Wednesday
16,1712339.9184327582
469,3344916.1727390755
518,0.0
2,9, 1, 9, 0, 2, 0.00,60.00,Wednesday
16,1712339.9184327582
469,3724721.155660689
518,0.0
2,9, 1, 9, 0, 3, 0.00,60.00,Wednesday
16,4366789.955841091
469,4150371.970917835
518,0.0
2,9, 1, 9, 0, 4, 0.00,60.00,Wednesday
16,1712339.9184327582
469,4328806.36266393
518,0.0
2,9, 1, 9, 0, 5, 0.00,60.00,Wednesday
16,1712339.9184327582
469,4235713.570423768
518,0.0
2,9, 1, 9, 0, 6, 0.00,60.00,Wednesday
16,1712339.9184327582
469,4022253.272953987
518,0.0
2,9, 1, 9, 0, 7, 0.00,60.00,Wednesday
16,4614977.766276291
469,4882905.394084486
518,0.0
2,9, 1, 9, 0, 8, 0.00,60.00,Wednesday
16,4614315.2233830625
469,15483568.849662034
518,0.0
2,9, 1, 9, 0, 9, 0.00,60.00,Wednesday
16,4781296.382881671
469,14320798.921407413
518,0.0
2,9, 1, 9, 0,10, 0.00,60.00,Wednesday
16,4780785.944750769
469,12300930.419065833
518,0.0
2,9, 1, 9, 0,11, 0.00,60.00,Wednesday
16,1712339.9184327582
469,10884379.160411302
518,0.0
2,9, 1, 9, 0,12, 0.00,60.00,Wednesday
16,4441677.661308927
469,9381130.920231936
518,0.0
2,9, 1, 9, 0,13, 0.00,60.00,Wednesday
16,1712339.9184327582
469,8371563.613354051
518,0.0
2,9, 1, 9, 0,14, 0.00,60.00,Wednesday
16,1712339.9184327582
469,8574742.267859833
518,0.0
2,9, 1, 9, 0,15, 0.00,60.00,Wednesday
16,4442274.470702998
469,9364436.082723986
518,0.0
2,9, 1, 9, 0,16, 0.00,60.00,Wednesday
16,1712339.9184327582
469,9997701.159323948
518,0.0
2,9, 1, 9, 0,17, 0.00,60.00,Wednesday
16,4442200.8291269755
469,10347349.556236504
518,0.0
2,9, 1, 9, 0,18, 0.00,60.00,Wednesday
16,4114600.369961462
469,10937128.138944589
518,0.0
2,9, 1, 9, 0,19, 0.00,60.00,Wednesday
16,2243207.7975545526
469,12549701.376543006
518,0.0
2,9, 1, 9, 0,20, 0.00,60.00,Wednesday
16,4644996.085136539
469,883936.8875855689
518,0.0
2,9, 1, 9, 0,21, 0.00,60.00,Wednesday
16,4645365.856815987
469,1926823.9786500246
518,0.0
2,9, 1, 9, 0,22, 0.00,60.00,Wednesday
16,4614971.307149646
469,1909401.9348269182
518,0.0
2,9, 1, 9, 0,23, 0.00,60.00,Wednesday
16,1712339.9184327582
469,1406632.3170725894
518,0.0
2,9, 1, 9, 0,24, 0.00,60.00,Wednesday
16,4614320.331673841
469,1561886.8518680856
518,0.0
3,9, 1, 9, 0,Wednesday
7,4.736458333333332,2.1, 3,60,7.6,23,60
8,4.126040580561692,1.9, 1,60,5.999997196412721,13,60
9,4.590807866781274,2.0999984741210938, 3,60,6.748006875248453,23,60
10,18.317708333333332,0.0, 1,15,94.0,12,30
11,18.375,0.0, 1,15,158.0,13,30
12,171.0951546233548,0.08415330395139851, 1,45,339.824999142154,24,60
13,-19.574463356569648,-59.76628024130013, 1,45,15.319288581092687,13,45
993,33650119.01205468,0.0, 1,15,2689458.828097351, 9,45
2,10, 1,10, 0, 1, 0.00,60.00,Thursday
16,1712339.9184327582
469,2007113.8823974512
518,0.0
2,10, 1,10, 0, 2, 0.00,60.00,Thursday
16,4366994.310982428
469,2097702.861674793
518,0.0
2,10, 1,10, 0, 3, 0.00,60.00,Thursday
16,1712339.9184327582
469,2694239.058244207
518,0.0
2,10, 1,10, 0, 4, 0.00,60.00,Thursday
16,1712339.9184327582
469,3090727.8439931655
518,0.0
2,10, 1,10, 0, 5, 0.00,60.00,Thursday
16,1712339.9184327582
469,3235819.726470922
518,0.0
2,10, 1,10, 0, 6, 0.00,60.00,Thursday
16,4366659.002158466
469,3331684.6777396705
518,0.0
2,10, 1,10, 0, 7, 0.00,60.00,Thursday
16,1942611.526180898
469,4231008.219755084
518,0.0
2,10, 1,10, 0, 8, 0.00,60.00,Thursday
16,4383685.666221295
469,15813390.574884394
518,0.0
2,10, 1,10, 0, 9, 0.00,60.00,Thursday
16,4781521.933809351
469,13801256.145084955
518,0.0
2,10, 1,10, 0,10, 0.00,60.00,Thursday
16,4781375.236085478
469,11503832.743013123
518,0.0
2,10, 1,10, 0,11, 0.00,60.00,Thursday
16,3143578.82291553
469,9663956.478468083
518,0.0
2,10, 1,10, 0,12, 0.00,60.00,Thursday
16,3010399.5928797666
469,8605802.536589462
518,0.0
2,10, 1,10, 0,13, 0.00,60.00,Thursday
16,1712339.9184327582
469,7973341.746045897
518,0.0
2,10, 1,10, 0,14, 0.00,60.00,Thursday
16,4442114.636654485
469,7940732.9054594925
518,0.0
2,10, 1,10, 0,15, 0.00,60.00,Thursday
16,1712339.9184327582
469,8609583.527230507
518,0.0
2,10, 1,10, 0,16, 0.00,60.00,Thursday
16,4442222.679449847
469,9522342.499524482
518,0.0
2,10, 1,10, 0,17, 0.00,60.00,Thursday
16,1712339.9184327582
469,10054947.08920963
518,0.0
2,10, 1,10, 0,18, 0.00,60.00,Thursday
16,4645459.591148291
469,10526554.458413528
518,0.0
2,10, 1,10, 0,19, 0.00,60.00,Thursday
16,4645996.903421004
469,10679560.042323694
518,0.0
2,10, 1,10, 0,20, 0.00,60.00,Thursday
16,1712339.9184327582
469,935981.0511600012
518,0.0
2,10, 1,10, 0,21, 0.00,60.00,Thursday
16,4645906.017059355
469,2536092.187413453
518,0.0
2,10, 1,10, 0,22, 0.00,60.00,Thursday
16,4614489.344453507
469,2993740.3671546425
518,0.0
2,10, 1,10, 0,23, 0.00,60.00,Thursday
16,4614899.654355034
469,2318454.019575939
518,0.0
2,10, 1,10, 0,24, 0.00,60.00,Thursday
16,1712339.9184327582
469,2370300.664138933
518,0.0
3,10, 1,10, 0,Thursday
7,4.616666666666666,2.7,23,60,7.5249999999999995, 1,15
8,2.0005208333333333,0.2, 7,60,5.3999999999999995, 1,15
9,3.6733112254525153,2.509699567522247,23,60,6.459245160919081, 1,15
10,18.4375,0.0, 1,15,91.0,13,30
11,35.565104166666664,0.0, 1,15,199.0,10,30
12,171.00130137365522,0.1036831833804491, 1,45,339.71002178991677,24,60
13,-19.451784315637955,-59.624707977317236, 1,45,15.460844461957508,13,45
993,33428534.527155027,0.0, 1,15,2762263.813838934, 9,30
2,11, 1,11, 0, 1, 0.00,60.00,Friday
16,4366991.41912192
469,2412159.11111933
518,0.0
2,11, 1,11, 0, 2, 0.00,60.00,Friday
16,1712339.9184327582
469,2613756.4246717654
518,0.0
2,11, 1,11, 0, 3, 0.00,60.00,Friday
16,1712339.9184327582
469,2895470.163390331
518,0.0
2,11, 1,11, 0, 4, 0.00,60.00,Friday
16,2175512.530963441
469,3234757.3912874297
518,0.0
2,11, 1,11, 0, 5, 0.00,60.00,Friday
16,3903530.748212278
469,3549432.4512435882
518,0.0
2,11, 1,11, 0, 6, 0.00,60.00,Friday
16,1712339.9184327582
469,3701050.437679066
518,0.0
2,11, 1,11, 0, 7, 0.00,60.00,Friday
16,4614950.346242552
469,4684266.818870504
518,0.0
2,11, 1,11, 0, 8, 0.00,60.00,Friday
16,2886827.359110742
469,14716819.521266464
518,0.0
2,11, 1,11, 0, 9, 0.00,60.00,Friday
16,3876601.8598059444
469,13981488.27219843
518,0.0
2,11, 1,11, 0,10, 0.00,60.00,Friday
16,4444619.161033264
469,11073673.370092668
518,0.0
2,11, 1,11, 0,11, 0.00,60.00,Friday
16,4442199.9971158495
469,8404428.586076476
518,0.0
2,11, 1,11, 0,12, 0.00,60.00,Friday
16,1712339.9184327582
469,6814958.375096461
518,0.0
2,11, 1,11, 0,13, 0.00,60.00,Friday
16,4441647.323627181
469,5742303.639965583
518,0.0
2,11, 1,11, 0,14, 0.00,60.00,Friday
16,1712339.9184327582
469,5495533.445847623
518,0.0
2,11, 1,11, 0,15, 0.00,60.00,Friday
16,4442004.181305002
469,5771506.381237829
518,0.0
2,11, 1,11, 0,16, 0.00,60.00,Friday
16,1712339.9184327582
469,7409274.781009823
518,0.0
2,11, 1,11, 0,17, 0.00,60.00,Friday
16,1712339.9184327582
469,9415235.319492819
518,0.0
2,11, 1,11, 0,18, 0.00,60.00,Friday
16,4645944.827302515
469,10019425.994614735
518,0.0
2,11, 1,11, 0,19, 0.00,60.00,Friday
16,4645854.0348455105
469,10276673.860574547
518,0.0
2,11, 1,11, 0,20, 0.00,60.00,Friday
16,4645181.35361345
469,874788.7331731281
518,0.0
2,11, 1,11, 0,21, 0.00,60.00,Friday
16,3248741.040853046
469,2480016.260279104
518,0.0
2,11, 1,11, 0,22, 0.00,60.00,Friday
16,3093921.2047504047
469,2977701.224229548
518,0.0
2,11, 1,11, 0,23, 0.00,60.00,Friday
16,4614989.45117882
469,2526904.1517486842
518,0.0
2,11, 1,11, 0,24, 0.00,60.00,Friday
16,4614311.173868564
469,2747834.8705850895
518,0.0
3,11, 1,11, 0,Friday
7,3.1302083333333326,2.1,23,60,4.4,15,60
8,1.0171875000000001,0.1, 7,60,2.4, 3,60
9,2.372332722381356,1.54409270954401,23,60,3.567697330803043, 1,60
10,16.3828125,0.0, 1,15,76.0,13,30
11,100.76822916666667,0.0, 1,15,475.0,13,30
12,170.9110217294324,0.2862432384600441, 1,45,339.602590374645,24,60
13,-19.322869432033745,-59.47579603669277, 1,45,15.609439599683608,13,45