Program Version,EnergyPlus, Version 23.2.0-7636e6b3e9, YMD=2025.01.28 12:57
1,5,Environment Title[],Latitude[deg],Longitude[deg],Time Zone[],Elevation[m]
2,8,Day of Simulation[],Month[],Day of Month[],DST Indicator[1=yes 0=no],Hour[],StartMinute[],EndMinute[],DayType
3,5,Cumulative Day of Simulation[],Month[],Day of Month[],DST Indicator[1=yes 0=no],DayType  ! When Daily Report Variables Requested
4,2,Cumulative Days of Simulation[],Month[]  ! When Monthly Report Variables Requested
5,1,Cumulative Days of Simulation[] ! When Run Period Report Variables Requested
6,1,Calendar Year of Simulation[] ! When Annual Report Variables Requested
7,7,Environment,Site Outdoor Air Drybulb Temperature [C] !Daily [Value,Min,Hour,Minute,Max,Hour,Minute]
8,7,Environment,Site Outdoor Air Dewpoint Temperature [C] !Daily [Value,Min,Hour,Minute,Max,Hour,Minute]
9,7,Environment,Site Outdoor Air Wetbulb Temperature [C] !Daily [Value,Min,Hour,Minute,Max,Hour,Minute]
10,7,Environment,Site Diffuse Solar Radiation Rate per Area [W/m2] !Daily [Value,Min,Hour,Minute,Max,Hour,Minute]
11,7,Environment,Site Direct Solar Radiation Rate per Area [W/m2] !Daily [Value,Min,Hour,Minute,Max,Hour,Minute]
12,7,Environment,Site Solar Azimuth Angle [deg] !Daily [Value,Min,Hour,Minute,Max,Hour,Minute]
13,7,Environment,Site Solar Altitude Angle [deg] !Daily [Value,Min,Hour,Minute,Max,Hour,Minute]
2844,7,MYDHW_0_WATERHEATER,Water Heater Heating Energy [J] !Daily [Value,Min,Hour,Minute,Max,Hour,Minute]
2983,7,SCENARIO_2_WATERHEATER,Water Heater Heating Energy [J] !Daily [Value,Min,Hour,Minute,Max,Hour,Minute]
1528,1,Heating:EnergyTransfer [J] !Hourly
1577,1,Cooling:EnergyTransfer [J] !Hourly
16,1,Electricity:Facility [J] !Hourly
End of Data Dictionary
1,RUN PERIOD 1,  52.46,   5.52,   1.00,  -3.90
2,1, 1, 1, 0, 1, 0.00,60.00,Tuesday
16,3339296.514321888
1528,197266670.9617971
1577,0.0
2,1, 1, 1, 0, 2, 0.00,60.00,Tuesday
16,3339296.514321888
1528,189459911.70715454
1577,0.0
2,1, 1, 1, 0, 3, 0.00,60.00,Tuesday
16,3339296.514321888
1528,192453974.11099643
1577,0.0
2,1, 1, 1, 0, 4, 0.00,60.00,Tuesday
16,5993754.750384498
1528,195029651.1947321
1577,0.0
2,1, 1, 1, 0, 5, 0.00,60.00,Tuesday
16,3339296.514321888
1528,196942880.00814998
1577,0.0
2,1, 1, 1, 0, 6, 0.00,60.00,Tuesday
16,3339296.514321888
1528,200009496.80733424
1577,0.0
2,1, 1, 1, 0, 7, 0.00,60.00,Tuesday
16,6241317.446579892
1528,203555516.38103807
1577,0.0
2,1, 1, 1, 0, 8, 0.00,60.00,Tuesday
16,6241991.786653088
1528,118866267.68897536
1577,0.0
2,1, 1, 1, 0, 9, 0.00,60.00,Tuesday
16,6327784.35248846
1528,128502473.39361075
1577,0.0
2,1, 1, 1, 0,10, 0.00,60.00,Tuesday
16,5504866.9190131
1528,128472428.63853502
1577,0.0
2,1, 1, 1, 0,11, 0.00,60.00,Tuesday
16,4212267.268914881
1528,132265272.69231334
1577,0.0
2,1, 1, 1, 0,12, 0.00,60.00,Tuesday
16,3339296.514321888
1528,139831865.0829387
1577,0.0
2,1, 1, 1, 0,13, 0.00,60.00,Tuesday
16,6068796.10443319
1528,143634510.54573703
1577,0.0
2,1, 1, 1, 0,14, 0.00,60.00,Tuesday
16,3339296.514321888
1528,147108439.09715706
1577,0.0
2,1, 1, 1, 0,15, 0.00,60.00,Tuesday
16,6069204.718257412
1528,148846045.40607008
1577,0.0
2,1, 1, 1, 0,16, 0.00,60.00,Tuesday
16,3339296.514321888
1528,152649613.28674376
1577,0.0
2,1, 1, 1, 0,17, 0.00,60.00,Tuesday
16,5724603.436275462
1528,150525416.01183352
1577,0.0
2,1, 1, 1, 0,18, 0.00,60.00,Tuesday
16,3709831.592438407
1528,144630021.92744783
1577,0.0
2,1, 1, 1, 0,19, 0.00,60.00,Tuesday
16,6272218.329238603
1528,138242275.06378406
1577,0.0
2,1, 1, 1, 0,20, 0.00,60.00,Tuesday
16,6272266.538788125
1528,219291928.12720335
1577,0.0
2,1, 1, 1, 0,21, 0.00,60.00,Tuesday
16,6272665.486037127
1528,207850202.19093844
1577,0.0
2,1, 1, 1, 0,22, 0.00,60.00,Tuesday
16,3339296.514321888
1528,202366035.66053095
1577,0.0
2,1, 1, 1, 0,23, 0.00,60.00,Tuesday
16,6241585.401612436
1528,207531469.86061928
1577,0.0
2,1, 1, 1, 0,24, 0.00,60.00,Tuesday
16,6241658.619755276
1528,213535950.81229478
1577,0.0
3,1, 1, 1, 0,Tuesday
7,2.891666666666666,1.4,16,60,4.2, 1,60
8,-0.03749999999999998,-2.5,10,60,2.1,24,60
9,1.854739388525906,0.4001495373206364,13,60,3.0998073170807516, 1,60
10,17.307291666666668,0.0, 1,15,86.0,12,30
11,26.854166666666668,0.0, 1,15,152.0,10,30
12,171.9210012821981,1.7466514206994332, 1,45,341.00180793165543,24,60
13,-20.325946072972584,-60.625898049216175, 1,45,14.446671545683287,13,45
2844,33574828.53243748,0.0, 1,15,2689639.0543499156, 9,60
2983,0.0,0.0, 1,15,0.0, 1,15
2,2, 1, 2, 0, 1, 0.00,60.00,Wednesday
16,3339296.514321888
1528,216522482.3424793
1577,0.0
2,2, 1, 2, 0, 2, 0.00,60.00,Wednesday
16,3339296.514321888
1528,211920867.41526505
1577,0.0
2,2, 1, 2, 0, 3, 0.00,60.00,Wednesday
16,5993573.998434175
1528,210746334.02458012
1577,0.0
2,2, 1, 2, 0, 4, 0.00,60.00,Wednesday
16,3339296.514321888
1528,215588008.42245936
1577,0.0
2,2, 1, 2, 0, 5, 0.00,60.00,Wednesday
16,3339296.514321888
1528,207335590.41774714
1577,0.0
2,2, 1, 2, 0, 6, 0.00,60.00,Wednesday
16,3339296.514321888
1528,201168076.55976617
1577,0.0
2,2, 1, 2, 0, 7, 0.00,60.00,Wednesday
16,6241946.019204602
1528,197519238.20180094
1577,0.0
2,2, 1, 2, 0, 8, 0.00,60.00,Wednesday
16,6241267.77361735
1528,99828922.57472077
1577,0.0
2,2, 1, 2, 0, 9, 0.00,60.00,Wednesday
16,6408318.059847131
1528,97866928.77138983
1577,0.0
2,2, 1, 2, 0,10, 0.00,60.00,Wednesday
16,6407765.585028963
1528,100002582.49408449
1577,0.0
2,2, 1, 2, 0,11, 0.00,60.00,Wednesday
16,3339296.514321888
1528,102466832.80474564
1577,0.0
2,2, 1, 2, 0,12, 0.00,60.00,Wednesday
16,6068603.598115835
1528,112714994.54309154
1577,0.0
2,2, 1, 2, 0,13, 0.00,60.00,Wednesday
16,3339296.514321888
1528,116334622.12454501
1577,0.0
2,2, 1, 2, 0,14, 0.00,60.00,Wednesday
16,3359671.483333502
1528,117664570.63517377
1577,0.0
2,2, 1, 2, 0,15, 0.00,60.00,Wednesday
16,6048847.49907727
1528,105780432.38281694
1577,0.0
2,2, 1, 2, 0,16, 0.00,60.00,Wednesday
16,3339296.514321888
1528,101617916.1508936
1577,0.0
2,2, 1, 2, 0,17, 0.00,60.00,Wednesday
16,6069168.530352918
1528,106593176.42852238
1577,0.0
2,2, 1, 2, 0,18, 0.00,60.00,Wednesday
16,5837793.647662234
1528,113006656.89032897
1577,0.0
2,2, 1, 2, 0,19, 0.00,60.00,Wednesday
16,3773982.4287154493
1528,128848636.07955186
1577,0.0
2,2, 1, 2, 0,20, 0.00,60.00,Wednesday
16,6272050.213415306
1528,222298344.57384485
1577,0.0
2,2, 1, 2, 0,21, 0.00,60.00,Wednesday
16,6272286.998421211
1528,214501613.9320137
1577,0.0
2,2, 1, 2, 0,22, 0.00,60.00,Wednesday
16,6241939.473636607
1528,210529220.76096284
1577,0.0
2,2, 1, 2, 0,23, 0.00,60.00,Wednesday
16,3339296.514321888
1528,214101654.9605965
1577,0.0
2,2, 1, 2, 0,24, 0.00,60.00,Wednesday
16,6241269.192118704
1528,220194395.12572277
1577,0.0
3,2, 1, 2, 0,Wednesday
7,3.686458333333334,2.7,19,60,4.7,15,60
8,0.859375,-2.5,24,60,3.0, 8,60
9,2.7411140405471186,1.1746816380023941, 1,60,3.8128607493951674, 8,60
10,16.630208333333332,0.0, 1,15,76.0,12,30
11,62.854166666666664,0.0, 1,15,310.0,15,30
12,171.8131188905313,1.5259563868488346, 1,45,340.83120702053344,24,60
13,-20.25473323294449,-60.545572589949266, 1,45,14.530053212951353,13,45
2844,33650133.10753765,0.0, 1,15,2756890.58129884, 9,45
2983,0.0,0.0, 1,15,0.0, 1,15
2,3, 1, 3, 0, 1, 0.00,60.00,Thursday
16,3339296.514321888
1528,231261854.68230197
1577,0.0
2,3, 1, 3, 0, 2, 0.00,60.00,Thursday
16,5993961.668310083
1528,238138692.29558846
1577,0.0
2,3, 1, 3, 0, 3, 0.00,60.00,Thursday
16,3339296.514321888
1528,238820183.34866077
1577,0.0
2,3, 1, 3, 0, 4, 0.00,60.00,Thursday
16,3339296.514321888
1528,244770111.11784935
1577,0.0
2,3, 1, 3, 0, 5, 0.00,60.00,Thursday
16,3339296.514321888
1528,244804364.50628152
1577,0.0
2,3, 1, 3, 0, 6, 0.00,60.00,Thursday
16,5993486.772064393
1528,248678757.30462256
1577,0.0
2,3, 1, 3, 0, 7, 0.00,60.00,Thursday
16,3672439.17578474
1528,255881748.00913253
1577,0.0
2,3, 1, 3, 0, 8, 0.00,60.00,Thursday
16,5907777.564940412
1528,166483342.5095087
1577,0.0
2,3, 1, 3, 0, 9, 0.00,60.00,Thursday
16,6408490.622917835
1528,172755039.67174524
1577,0.0
2,3, 1, 3, 0,10, 0.00,60.00,Thursday
16,6408343.94577403
1528,168508047.89377177
1577,0.0
2,3, 1, 3, 0,11, 0.00,60.00,Thursday
16,4955296.641412893
1528,152843128.52522397
1577,0.0
2,3, 1, 3, 0,12, 0.00,60.00,Thursday
16,4452607.899300214
1528,143749771.48683298
1577,0.0
2,3, 1, 3, 0,13, 0.00,60.00,Thursday
16,3339296.514321888
1528,141500275.1906516
1577,0.0
2,3, 1, 3, 0,14, 0.00,60.00,Thursday
16,6068937.309691487
1528,148182043.35147086
1577,0.0
2,3, 1, 3, 0,15, 0.00,60.00,Thursday
16,3339296.514321888
1528,150433497.9727426
1577,0.0
2,3, 1, 3, 0,16, 0.00,60.00,Thursday
16,6069190.333980454
1528,164972156.20012242
1577,0.0
2,3, 1, 3, 0,17, 0.00,60.00,Thursday
16,3339296.514321888
1528,181964609.54584897
1577,0.0
2,3, 1, 3, 0,18, 0.00,60.00,Thursday
16,6272368.426651277
1528,193786465.48359612
1577,0.0
2,3, 1, 3, 0,19, 0.00,60.00,Thursday
16,6272892.718753589
1528,205575751.9745435
1577,0.0
2,3, 1, 3, 0,20, 0.00,60.00,Thursday
16,3339296.514321888
1528,297856670.89681387
1577,0.0
2,3, 1, 3, 0,21, 0.00,60.00,Thursday
16,6272874.385353031
1528,286178581.71884954
1577,0.0
2,3, 1, 3, 0,22, 0.00,60.00,Thursday
16,6241498.488682736
1528,276526661.33987486
1577,0.0
2,3, 1, 3, 0,23, 0.00,60.00,Thursday
16,6241770.036279684
1528,265512060.55980122
1577,0.0
2,3, 1, 3, 0,24, 0.00,60.00,Thursday
16,3339296.514321888
1528,255202581.1544849
1577,0.0
3,3, 1, 3, 0,Thursday
7,1.1666666666666665,-1.0,19,60,2.775, 1,15
8,-0.6007504992247794,-2.2,13,60,1.3,24,60
9,0.3890060654580482,-1.321738782587282,19,60,2.1129291271731074, 1,15
10,14.333333333333334,0.0, 1,15,65.0,13,30
11,122.921875,0.0, 1,15,558.0,13,30
12,171.70635220439564,1.3083254005832814, 1,45,340.6669445746221,24,60
13,-20.176959693862347,-60.45738645598138, 1,45,14.6208584194948,13,45
2844,33428239.44756169,0.0, 1,15,2762274.6977363527, 9,30
2983,0.0,0.0, 1,15,0.0, 1,15
2,4, 1, 4, 0, 1, 0.00,60.00,Friday
16,5993958.9157358315
1528,291094049.6728661
1577,0.0
2,4, 1, 4, 0, 2, 0.00,60.00,Friday
16,3339296.514321888
1528,317553679.16444635
1577,0.0
2,4, 1, 4, 0, 3, 0.00,60.00,Friday
16,3339296.514321888
1528,321291897.8435019
1577,0.0
2,4, 1, 4, 0, 4, 0.00,60.00,Friday
16,4103013.04264176
1528,326297795.6339693
1577,0.0
2,4, 1, 4, 0, 5, 0.00,60.00,Friday
16,5229797.7551121395
1528,330859909.2124997
1577,0.0
2,4, 1, 4, 0, 6, 0.00,60.00,Friday
16,3339296.514321888
1528,334703070.36338574
1577,0.0
2,4, 1, 4, 0, 7, 0.00,60.00,Friday
16,6241918.656607062
1528,340086922.68375903
1577,0.0
2,4, 1, 4, 0, 8, 0.00,60.00,Friday
16,4617555.717722874
1528,241821620.46150982
1577,0.0
2,4, 1, 4, 0, 9, 0.00,60.00,Friday
16,5503572.272531081
1528,235313492.13689244
1577,0.0
2,4, 1, 4, 0,10, 0.00,60.00,Friday
16,5961755.119375847
1528,228106104.1760818
1577,0.0
2,4, 1, 4, 0,11, 0.00,60.00,Friday
16,6069172.911152855
1528,220642547.86546016
1577,0.0
2,4, 1, 4, 0,12, 0.00,60.00,Friday
16,3339296.514321888
1528,213133089.4639696
1577,0.0
2,4, 1, 4, 0,13, 0.00,60.00,Friday
16,6068657.045796886
1528,205649256.0345625
1577,0.0
2,4, 1, 4, 0,14, 0.00,60.00,Friday
16,3339296.514321888
1528,206625603.62923118
1577,0.0
2,4, 1, 4, 0,15, 0.00,60.00,Friday
16,6068797.417939835
1528,212751531.50199208
1577,0.0
2,4, 1, 4, 0,16, 0.00,60.00,Friday
16,3339296.514321888
1528,219102364.97116798
1577,0.0
2,4, 1, 4, 0,17, 0.00,60.00,Friday
16,3339296.514321888
1528,226678584.0116828
1577,0.0
2,4, 1, 4, 0,18, 0.00,60.00,Friday
16,6272918.63318127
1528,233531560.83366492
1577,0.0
2,4, 1, 4, 0,19, 0.00,60.00,Friday
16,6272827.8550070245
1528,239583534.62086472
1577,0.0
2,4, 1, 4, 0,20, 0.00,60.00,Friday
16,6272434.858817134
1528,347625469.5267883
1577,0.0
2,4, 1, 4, 0,21, 0.00,60.00,Friday
16,5016811.774285274
1528,355562325.3701088
1577,0.0
2,4, 1, 4, 0,22, 0.00,60.00,Friday
16,4581260.59774101
1528,358779936.25733864
1577,0.0
2,4, 1, 4, 0,23, 0.00,60.00,Friday
16,6241961.787121141
1528,371900512.18486905
1577,0.0
2,4, 1, 4, 0,24, 0.00,60.00,Friday
16,6241273.119281922
1528,379785488.8838899
1577,0.0
3,4, 1, 4, 0,Friday
7,-2.370833333333333,-5.0,23,60,0.5999999999999999, 1,15
8,-3.617708333333334,-7.7,24,60,0.3750000000000001, 1,15
9,-2.8442852708335775,-5.828734757976214,24,60,0.4861570244684519, 1,15
10,14.375,0.0, 1,15,66.0,13,30
11,129.13541666666666,0.0, 1,15,576.0,13,30
12,171.60081020210077,1.0940828941618326, 1,45,340.50922888156305,24,60
13,-20.09265613455602,-60.36138875158809, 1,45,14.71905019080346,13,45
2844,35990682.06292097,0.0, 1,15,2640259.9069734444,18,15
2983,0.0,0.0, 1,15,0.0, 1,15
2,5, 1, 5, 0, 1, 0.00,60.00,Saturday
16,3339296.514321888
1528,377958428.0590236
1577,0.0
2,5, 1, 5, 0, 2, 0.00,60.00,Saturday
16,3339296.514321888
1528,377986633.59484744
1577,0.0
2,5, 1, 5, 0, 3, 0.00,60.00,Saturday
16,3799690.236221741
1528,379692922.1795853
1577,0.0
2,5, 1, 5, 0, 4, 0.00,60.00,Saturday
16,5533267.8569567185
1528,381432567.57721525
1577,0.0
2,5, 1, 5, 0, 5, 0.00,60.00,Saturday
16,3339296.514321888
1528,383198184.76148564
1577,0.0
2,5, 1, 5, 0, 6, 0.00,60.00,Saturday
16,3339296.514321888
1528,384986977.6686541
1577,0.0
2,5, 1, 5, 0, 7, 0.00,60.00,Saturday
16,6241504.807802932
1528,388531539.91588765
1577,0.0
2,5, 1, 5, 0, 8, 0.00,60.00,Saturday
16,6241760.5191115085
1528,288899092.34586614
1577,0.0
2,5, 1, 5, 0, 9, 0.00,60.00,Saturday
16,6407838.263702334
1528,280927878.71629167
1577,0.0
2,5, 1, 5, 0,10, 0.00,60.00,Saturday
16,6408500.517331162
1528,272701253.3262923
1577,0.0
2,5, 1, 5, 0,11, 0.00,60.00,Saturday
16,3339296.514321888
1528,263736834.11282182
1577,0.0
2,5, 1, 5, 0,12, 0.00,60.00,Saturday
16,3490711.383444742
1528,254015014.0391029
1577,0.0
2,5, 1, 5, 0,13, 0.00,60.00,Saturday
16,5917695.179022178
1528,245570421.60595077
1577,0.0
2,5, 1, 5, 0,14, 0.00,60.00,Saturday
16,3339296.514321888
1528,243957031.60153827
1577,0.0
2,5, 1, 5, 0,15, 0.00,60.00,Saturday
16,6069176.371825781
1528,247286270.49563915
1577,0.0
2,5, 1, 5, 0,16, 0.00,60.00,Saturday
16,3339296.514321888
1528,250317039.2888873
1577,0.0
2,5, 1, 5, 0,17, 0.00,60.00,Saturday
16,6068674.466729935
1528,252579754.85716835
1577,0.0
2,5, 1, 5, 0,18, 0.00,60.00,Saturday
16,3339296.514321888
1528,255825372.68685454
1577,0.0
2,5, 1, 5, 0,19, 0.00,60.00,Saturday
16,6272924.796605576
1528,258502377.02101058
1577,0.0
2,5, 1, 5, 0,20, 0.00,60.00,Saturday
16,6272833.973929705
1528,353000922.9529855
1577,0.0
2,5, 1, 5, 0,21, 0.00,60.00,Saturday
16,6272463.40312839
1528,351579608.5327678
1577,0.0
2,5, 1, 5, 0,22, 0.00,60.00,Saturday
16,3946276.679101186
1528,350492593.4389562
1577,0.0
2,5, 1, 5, 0,23, 0.00,60.00,Saturday
16,5634558.600911157
1528,348123969.725699
1577,0.0
2,5, 1, 5, 0,24, 0.00,60.00,Saturday
16,6241714.720878892
1528,347462690.5630882
1577,0.0
3,5, 1, 5, 0,Saturday
7,-4.088541666666665,-5.5, 7,60,-2.8,13,60
8,-7.080208333333332,-7.45, 1,15,-6.7, 1,60
9,-5.141229228510597,-6.135298049949361, 7,60,-4.298956651781032,13,60
10,14.5703125,0.0, 1,15,65.0,13,30
11,132.4921875,0.0, 1,15,603.0,13,30
12,171.49660012976298,0.8835410953785034, 1,45,340.35825202416595,24,60
13,-20.001856138640335,-60.257633494339274, 1,45,14.82458830946985,13,45
2844,33651762.79279836,0.0, 1,15,2753553.837567342,10,60
2983,0.0,0.0, 1,15,0.0, 1,15
2,6, 1, 6, 0, 1, 0.00,60.00,Sunday
16,3339296.514321888
1528,346891497.97904694
1577,0.0
2,6, 1, 6, 0, 2, 0.00,60.00,Sunday
16,3339296.514321888
1528,348939632.1437224
1577,0.0
2,6, 1, 6, 0, 3, 0.00,60.00,Sunday
16,5993956.682806741
1528,351341869.211121
1577,0.0
2,6, 1, 6, 0, 4, 0.00,60.00,Sunday
16,3339296.514321888
1528,354265038.16679174
1577,0.0
2,6, 1, 6, 0, 5, 0.00,60.00,Sunday
16,3339296.514321888
1528,357951441.3856633
1577,0.0
2,6, 1, 6, 0, 6, 0.00,60.00,Sunday
16,5993539.3483471675
1528,360429188.3900166
1577,0.0
2,6, 1, 6, 0, 7, 0.00,60.00,Sunday
16,3339296.514321888
1528,365051996.1436189
1577,0.0
2,6, 1, 6, 0, 8, 0.00,60.00,Sunday
16,6241155.180678068
1528,270125062.0273586
1577,0.0
2,6, 1, 6, 0, 9, 0.00,60.00,Sunday
16,6407708.575920282
1528,267859337.7670621
1577,0.0
2,6, 1, 6, 0,10, 0.00,60.00,Sunday
16,6407786.998475766
1528,266108167.47856456
1577,0.0
2,6, 1, 6, 0,11, 0.00,60.00,Sunday
16,3339296.514321888
1528,263595326.39350346
1577,0.0
2,6, 1, 6, 0,12, 0.00,60.00,Sunday
16,6068871.335680103
1528,260197779.28483108
1577,0.0
2,6, 1, 6, 0,13, 0.00,60.00,Sunday
16,3339296.514321888
1528,256756256.60317704
1577,0.0
2,6, 1, 6, 0,14, 0.00,60.00,Sunday
16,6069196.587597696
1528,253323472.68310076
1577,0.0
2,6, 1, 6, 0,15, 0.00,60.00,Sunday
16,3339296.514321888
1528,249852419.81843668
1577,0.0
2,6, 1, 6, 0,16, 0.00,60.00,Sunday
16,5588703.745768221
1528,247603271.2990127
1577,0.0
2,6, 1, 6, 0,17, 0.00,60.00,Sunday
16,3819412.031406106
1528,244854286.76517448
1577,0.0
2,6, 1, 6, 0,18, 0.00,60.00,Sunday
16,6272355.127645478
1528,241321804.41090345
1577,0.0
2,6, 1, 6, 0,19, 0.00,60.00,Sunday
16,4857113.682195449
1528,237761653.93948227
1577,0.0
2,6, 1, 6, 0,20, 0.00,60.00,Sunday
16,4754174.16226439
1528,330097461.2702307
1577,0.0
2,6, 1, 6, 0,21, 0.00,60.00,Sunday
16,6272385.293747503
1528,329153995.55228025
1577,0.0
2,6, 1, 6, 0,22, 0.00,60.00,Sunday
16,6241946.008900315
1528,328478062.6293797
1577,0.0
2,6, 1, 6, 0,23, 0.00,60.00,Sunday
16,4860341.834112333
1528,326618626.34915626
1577,0.0
2,6, 1, 6, 0,24, 0.00,60.00,Sunday
16,4720222.456663543
1528,326367598.9178108
1577,0.0
3,6, 1, 6, 0,Sunday
7,-3.4229166666666675,-4.6, 7,60,-2.4,19,60
8,-4.572395833333333,-7.1, 1,15,-3.0,24,60
9,-3.8650041755420497,-4.887844760743663, 2,60,-2.6504321491632616,24,60
10,16.927083333333332,0.0, 1,15,89.0,12,30
11,4.8203125,0.0, 1,15,29.0,15,30
12,171.39382734271808,0.676999179191866, 1,45,340.21418969258576,24,60
13,-19.90459616452433,-60.14617945944964, 1,45,14.937429352245028,13,45
2844,33426112.340753067,0.0, 1,15,2612384.545120585,22,45
2983,0.0,0.0, 1,15,0.0, 1,15
2,7, 1, 7, 0, 1, 0.00,60.00,Monday
16,5993952.103020938
1528,326211743.9420217
1577,0.0
2,7, 1, 7, 0, 2, 0.00,60.00,Monday
16,3339296.514321888
1528,343385777.0016045
1577,0.0
2,7, 1, 7, 0, 3, 0.00,60.00,Monday
16,3339296.514321888
1528,372479232.17076176
1577,0.0
2,7, 1, 7, 0, 4, 0.00,60.00,Monday
16,3339296.514321888
1528,402740696.14647895
1577,0.0
2,7, 1, 7, 0, 5, 0.00,60.00,Monday
16,5993598.4558011405
1528,432156948.4457475
1577,0.0
2,7, 1, 7, 0, 6, 0.00,60.00,Monday
16,3339296.514321888
1528,461169767.52086365
1577,0.0
2,7, 1, 7, 0, 7, 0.00,60.00,Monday
16,6241670.419569951
1528,494085384.84766227
1577,0.0
2,7, 1, 7, 0, 8, 0.00,60.00,Monday
16,3339296.514321888
1528,396303668.10972345
1577,0.0
2,7, 1, 7, 0, 9, 0.00,60.00,Monday
16,6408251.757508308
1528,377112371.6671877
1577,0.0
2,7, 1, 7, 0,10, 0.00,60.00,Monday
16,6407742.141465569
1528,357483420.6167476
1577,0.0
2,7, 1, 7, 0,11, 0.00,60.00,Monday
16,6068685.080096548
1528,337717713.02129894
1577,0.0
2,7, 1, 7, 0,12, 0.00,60.00,Monday
16,3339296.514321888
1528,317926016.54892576
1577,0.0
2,7, 1, 7, 0,13, 0.00,60.00,Monday
16,6069220.330658147
1528,298250533.39738774
1577,0.0
2,7, 1, 7, 0,14, 0.00,60.00,Monday
16,3339296.514321888
1528,287338461.62743914
1577,0.0
2,7, 1, 7, 0,15, 0.00,60.00,Monday
16,3339296.514321888
1528,282962442.36191386
1577,0.0
2,7, 1, 7, 0,16, 0.00,60.00,Monday
16,6069083.232201276
1528,278255143.39225435
1577,0.0
2,7, 1, 7, 0,17, 0.00,60.00,Monday
16,3339296.514321888
1528,274040063.0628206
1577,0.0
2,7, 1, 7, 0,18, 0.00,60.00,Monday
16,6272490.568553202
1528,269140723.98511946
1577,0.0
2,7, 1, 7, 0,19, 0.00,60.00,Monday
16,6272937.609344151
1528,264672317.73019052
1577,0.0
2,7, 1, 7, 0,20, 0.00,60.00,Monday
16,6272846.795539616
1528,354422876.88512075
1577,0.0
2,7, 1, 7, 0,21, 0.00,60.00,Monday
16,3339296.514321888
1528,348538114.2511107
1577,0.0
2,7, 1, 7, 0,22, 0.00,60.00,Monday
16,6241537.883196693
1528,342380542.2857876
1577,0.0
2,7, 1, 7, 0,23, 0.00,60.00,Monday
16,6241715.581491204
1528,335519860.11152595
1577,0.0
2,7, 1, 7, 0,24, 0.00,60.00,Monday
16,5794315.55277349
1528,329846820.6981489
1577,0.0
3,7, 1, 7, 0,Monday
7,-5.505729166666664,-11.1, 7,60,-2.3,24,60
8,-6.389583333333333,-12.1, 7,60,-2.9, 1,60
9,-5.813797856992925,-11.366139782034363, 7,60,-2.600129425188394, 1,60
10,18.200520833333332,0.0, 1,15,84.0,12,30
11,80.8359375,0.0, 1,15,390.0,13,30
12,171.29259514926343,0.4747425056558858, 1,45,340.0772010768144,24,60
13,-19.800915512093123,-60.02709001319141, 1,45,15.057526730624629,13,45
2844,35638106.67964243,0.0, 1,15,2688173.1104217554, 9,15
2983,0.0,0.0, 1,15,0.0, 1,15
2,8, 1, 8, 0, 1, 0.00,60.00,Tuesday
16,3747594.995592766
1528,324776127.0013095
1577,0.0
2,8, 1, 8, 0, 2, 0.00,60.00,Tuesday
16,3339296.514321888
1528,322904750.97070664
1577,0.0
2,8, 1, 8, 0, 3, 0.00,60.00,Tuesday
16,3339296.514321888
1528,322517774.35305846
1577,0.0
2,8, 1, 8, 0, 4, 0.00,60.00,Tuesday
16,5993995.912656307
1528,323398305.0933764
1577,0.0
2,8, 1, 8, 0, 5, 0.00,60.00,Tuesday
16,3339296.514321888
1528,323802883.58310485
1577,0.0
2,8, 1, 8, 0, 6, 0.00,60.00,Tuesday
16,3339296.514321888
1528,323487754.85331714
1577,0.0
2,8, 1, 8, 0, 7, 0.00,60.00,Tuesday
16,6241288.339519925
1528,324639125.37504625
1577,0.0
2,8, 1, 8, 0, 8, 0.00,60.00,Tuesday
16,6241975.892452116
1528,221347958.54961544
1577,0.0
2,8, 1, 8, 0, 9, 0.00,60.00,Tuesday
16,6225548.7390965745
1528,210508515.21491256
1577,0.0
2,8, 1, 8, 0,10, 0.00,60.00,Tuesday
16,5504726.57205514
1528,198452818.84885082
1577,0.0
2,8, 1, 8, 0,11, 0.00,60.00,Tuesday
16,4303146.1423547305
1528,187885459.41695073
1577,0.0
2,8, 1, 8, 0,12, 0.00,60.00,Tuesday
16,3339296.514321888
1528,182225174.25408447
1577,0.0
2,8, 1, 8, 0,13, 0.00,60.00,Tuesday
16,6068845.108228032
1528,177456675.36968827
1577,0.0
2,8, 1, 8, 0,14, 0.00,60.00,Tuesday
16,3339296.514321888
1528,174273601.03290358
1577,0.0
2,8, 1, 8, 0,15, 0.00,60.00,Tuesday
16,6069199.279465711
1528,166548425.6847685
1577,0.0
2,8, 1, 8, 0,16, 0.00,60.00,Tuesday
16,3339296.514321888
1528,163528900.5265932
1577,0.0
2,8, 1, 8, 0,17, 0.00,60.00,Tuesday
16,5633693.987286218
1528,165436062.36294
1577,0.0
2,8, 1, 8, 0,18, 0.00,60.00,Tuesday
16,3807584.9194415994
1528,160262505.3334725
1577,0.0
2,8, 1, 8, 0,19, 0.00,60.00,Tuesday
16,6272204.669253098
1528,153213934.40471607
1577,0.0
2,8, 1, 8, 0,20, 0.00,60.00,Tuesday
16,6272298.987310143
1528,238789353.05972064
1577,0.0
2,8, 1, 8, 0,21, 0.00,60.00,Tuesday
16,6272744.219059122
1528,226421008.86581996
1577,0.0
2,8, 1, 8, 0,22, 0.00,60.00,Tuesday
16,3339296.514321888
1528,212399095.22397488
1577,0.0
2,8, 1, 8, 0,23, 0.00,60.00,Tuesday
16,6241522.182440186
1528,204842039.57387522
1577,0.0
2,8, 1, 8, 0,24, 0.00,60.00,Tuesday
16,6241736.403485473
1528,206067185.25496897
1577,0.0
3,8, 1, 8, 0,Tuesday
7,0.33385416666666695,-2.25, 1,15,4.0,23,60
8,-0.19583404686953979,-3.6, 7,60,4.0,23,60
9,0.1188314416176298,-2.7575005134912995, 7,60,4.0,23,60
10,6.432291666666667,0.0, 1,15,34.0,12,30
11,0.3151041666666667,0.0, 1,15,7.0,10,30
12,171.19300465716188,0.2770419467789127, 1,45,339.9474288361953,24,60
13,-19.69085628613162,-59.900432936670626, 1,45,15.184830734836614,13,45
2844,33938425.90849224,0.0, 1,30,2612411.4403172056, 8,60
2983,0.0,0.0, 1,15,0.0, 1,15
2,9, 1, 9, 0, 1, 0.00,60.00,Wednesday
16,3339296.514321888
1528,209483560.64412427
1577,0.0
2,9, 1, 9, 0, 2, 0.00,60.00,Wednesday
16,3339296.514321888
1528,219996462.98893306
1577,0.0
2,9, 1, 9, 0, 3, 0.00,60.00,Wednesday
16,5993749.130396625
1528,233643678.20097226
1577,0.0
2,9, 1, 9, 0, 4, 0.00,60.00,Wednesday
16,3339296.514321888
1528,237195023.6494882
1577,0.0
2,9, 1, 9, 0, 5, 0.00,60.00,Wednesday
16,3339296.514321888
1528,225674109.08330768
1577,0.0
2,9, 1, 9, 0, 6, 0.00,60.00,Wednesday
16,3339296.514321888
1528,213265083.10884732
1577,0.0
2,9, 1, 9, 0, 7, 0.00,60.00,Wednesday
16,6241934.213509813
1528,209340581.87578756
1577,0.0
2,9, 1, 9, 0, 8, 0.00,60.00,Wednesday
16,6241271.909267437
1528,123164235.31413713
1577,0.0
2,9, 1, 9, 0, 9, 0.00,60.00,Wednesday
16,6408252.159923248
1528,121944835.57446875
1577,0.0
2,9, 1, 9, 0,10, 0.00,60.00,Wednesday
16,6407742.27644074
1528,112629998.18290864
1577,0.0
2,9, 1, 9, 0,11, 0.00,60.00,Wednesday
16,3339296.514321888
1528,102670785.56419957
1577,0.0
2,9, 1, 9, 0,12, 0.00,60.00,Wednesday
16,6068634.789960283
1528,91907938.4957821
1577,0.0
2,9, 1, 9, 0,13, 0.00,60.00,Wednesday
16,3339296.514321888
1528,81165241.53784582
1577,0.0
2,9, 1, 9, 0,14, 0.00,60.00,Wednesday
16,3339296.514321888
1528,79570706.05834515
1577,0.0
2,9, 1, 9, 0,15, 0.00,60.00,Wednesday
16,6069230.925562412
1528,82276435.85838324
1577,0.0
2,9, 1, 9, 0,16, 0.00,60.00,Wednesday
16,3339296.514321888
1528,85371966.56345454
1577,0.0
2,9, 1, 9, 0,17, 0.00,60.00,Wednesday
16,6069157.28387795
1528,89082631.05375399
1577,0.0
2,9, 1, 9, 0,18, 0.00,60.00,Wednesday
16,5740334.041233759
1528,91649269.87966524
1577,0.0
2,9, 1, 9, 0,19, 0.00,60.00,Wednesday
16,3871386.659637151
1528,94721494.58334921
1577,0.0
2,9, 1, 9, 0,20, 0.00,60.00,Wednesday
16,6272074.015314277
1528,186758408.1921836
1577,0.0
2,9, 1, 9, 0,21, 0.00,60.00,Wednesday
16,6272323.285069417
1528,164595794.26147926
1577,0.0
2,9, 1, 9, 0,22, 0.00,60.00,Wednesday
16,6241927.653592389
1528,145720487.72237876
1577,0.0
2,9, 1, 9, 0,23, 0.00,60.00,Wednesday
16,3339296.514321888
1528,137710945.20103982
1577,0.0
2,9, 1, 9, 0,24, 0.00,60.00,Wednesday
16,6241277.167793706
1528,135217092.2018959
1577,0.0
3,9, 1, 9, 0,Wednesday
7,4.736458333333332,2.1, 3,60,7.6,23,60
8,4.126040580561692,1.9, 1,60,5.999997196412721,13,60
9,4.590807866781274,2.0999984741210938, 3,60,6.748006875248453,23,60
10,18.317708333333332,0.0, 1,15,94.0,12,30
11,18.375,0.0, 1,15,158.0,13,30
12,171.0951546233548,0.08415330395139851, 1,45,339.824999142154,24,60
13,-19.574463356569648,-59.76628024130013, 1,45,15.319288581092687,13,45
2844,33650229.87996551,0.0, 1,15,2688601.7964602243, 9,45
2983,0.0,0.0, 1,15,0.0, 1,15
2,10, 1,10, 0, 1, 0.00,60.00,Thursday
16,3339296.514321888
1528,138261208.1321602
1577,0.0
2,10, 1,10, 0, 2, 0.00,60.00,Thursday
16,5993950.674870763
1528,145543381.76637697
1577,0.0
2,10, 1,10, 0, 3, 0.00,60.00,Thursday
16,3339296.514321888
1528,167907428.43278152
1577,0.0
2,10, 1,10, 0, 4, 0.00,60.00,Thursday
16,3339296.514321888
1528,179242637.3845256
1577,0.0
2,10, 1,10, 0, 5, 0.00,60.00,Thursday
16,3339296.514321888
1528,180121238.69875914
1577,0.0
2,10, 1,10, 0, 6, 0.00,60.00,Thursday
16,5993619.004633967
1528,180556943.63673958
1577,0.0
2,10, 1,10, 0, 7, 0.00,60.00,Thursday
16,3567350.6507600574
1528,181131734.4428103
1577,0.0
2,10, 1,10, 0, 8, 0.00,60.00,Thursday
16,6012868.736505497
1528,94976398.9001438
1577,0.0
2,10, 1,10, 0, 9, 0.00,60.00,Thursday
16,6408478.293821236
1528,103751684.71085979
1577,0.0
2,10, 1,10, 0,10, 0.00,60.00,Thursday
16,6408331.595696047
1528,111667429.728046
1577,0.0
2,10, 1,10, 0,11, 0.00,60.00,Thursday
16,4766932.162504749
1528,97838577.4818021
1577,0.0
2,10, 1,10, 0,12, 0.00,60.00,Thursday
16,4640959.411554022
1528,88040631.62478292
1577,0.0
2,10, 1,10, 0,13, 0.00,60.00,Thursday
16,3339296.514321888
1528,90586864.51179984
1577,0.0
2,10, 1,10, 0,14, 0.00,60.00,Thursday
16,6069074.063825071
1528,91059835.2320097
1577,0.0
2,10, 1,10, 0,15, 0.00,60.00,Thursday
16,3339296.514321888
1528,92885077.92942539
1577,0.0
2,10, 1,10, 0,16, 0.00,60.00,Thursday
16,6069179.059643691
1528,97846063.76652102
1577,0.0
2,10, 1,10, 0,17, 0.00,60.00,Thursday
16,3339296.514321888
1528,103408505.61386752
1577,0.0
2,10, 1,10, 0,18, 0.00,60.00,Thursday
16,6272417.176265152
1528,118004524.31402485
1577,0.0
2,10, 1,10, 0,19, 0.00,60.00,Thursday
16,6272953.267075885
1528,123273120.55087812
1577,0.0
2,10, 1,10, 0,20, 0.00,60.00,Thursday
16,3339296.514321888
1528,214835821.53547078
1577,0.0
2,10, 1,10, 0,21, 0.00,60.00,Thursday
16,6272862.469110487
1528,216791391.53223294
1577,0.0
2,10, 1,10, 0,22, 0.00,60.00,Thursday
16,6241445.340256926
1528,219501454.2973636
1577,0.0
2,10, 1,10, 0,23, 0.00,60.00,Thursday
16,6241857.345761787
1528,221495617.46420267
1577,0.0
2,10, 1,10, 0,24, 0.00,60.00,Thursday
16,3339296.514321888
1528,211960273.75534716
1577,0.0
3,10, 1,10, 0,Thursday
7,4.616666666666666,2.7,23,60,7.5249999999999995, 1,15
8,2.0005208333333333,0.2, 7,60,5.3999999999999995, 1,15
9,3.6733112254525153,2.509699567522247,23,60,6.459245160919081, 1,15
10,18.4375,0.0, 1,15,91.0,13,30
11,35.565104166666664,0.0, 1,15,199.0,10,30
12,171.00130137365522,0.1036831833804491, 1,45,339.71002178991677,24,60
13,-19.451784315637955,-59.624707977317236, 1,45,15.460844461957508,13,45
2844,33428548.38371133,0.0, 1,15,2762263.6015494145, 9,30
2983,0.0,0.0, 1,15,0.0, 1,15
2,11, 1,11, 0, 1, 0.00,60.00,Friday
16,5993947.881824911
1528,204152838.4967923
1577,0.0
2,11, 1,11, 0, 2, 0.00,60.00,Friday
16,3339296.514321888
1528,206690548.71068436
1577,0.0
2,11, 1,11, 0, 3, 0.00,60.00,Friday
16,3339296.514321888
1528,212163167.01076126
1577,0.0
2,11, 1,11, 0, 4, 0.00,60.00,Friday
16,3798797.6398068443
1528,217698495.78694767
1577,0.0
2,11, 1,11, 0, 5, 0.00,60.00,Friday
16,5534160.973721938
1528,220973172.92498845
1577,0.0
2,11, 1,11, 0, 6, 0.00,60.00,Friday
16,3339296.514321888
1528,219411619.9750013
1577,0.0
2,11, 1,11, 0, 7, 0.00,60.00,Friday
16,6241906.799005542
1528,217890914.39070034
1577,0.0
2,11, 1,11, 0, 8, 0.00,60.00,Friday
16,4512520.638251157
1528,126260167.86551121
1577,0.0
2,11, 1,11, 0, 9, 0.00,60.00,Friday
16,5503558.344018915
1528,133620422.00419113
1577,0.0
2,11, 1,11, 0,10, 0.00,60.00,Friday
16,6072912.680488322
1528,134274352.99329802
1577,0.0
2,11, 1,11, 0,11, 0.00,60.00,Friday
16,6069156.3943259735
1528,115506671.4784703
1577,0.0
2,11, 1,11, 0,12, 0.00,60.00,Friday
16,3339296.514321888
1528,114674822.56566249
1577,0.0
2,11, 1,11, 0,13, 0.00,60.00,Friday
16,6068603.567832779
1528,115868456.37589736
1577,0.0
2,11, 1,11, 0,14, 0.00,60.00,Friday
16,3339296.514321888
1528,116884529.98214008
1577,0.0
2,11, 1,11, 0,15, 0.00,60.00,Friday
16,6068963.0615581935
1528,110202715.63346966
1577,0.0
2,11, 1,11, 0,16, 0.00,60.00,Friday
16,3339296.514321888
1528,122323372.07865815
1577,0.0
2,11, 1,11, 0,17, 0.00,60.00,Friday
16,3339296.514321888
1528,136544446.21952817
1577,0.0
2,11, 1,11, 0,18, 0.00,60.00,Friday
16,6272901.213657271
1528,134311171.43217403
1577,0.0
2,11, 1,11, 0,19, 0.00,60.00,Friday
16,6272810.422051193