Program Version,EnergyPlus, Version 23.2.0-7636e6b3e9, YMD=2025.01.28 12:57
1,5,Environment Title[],Latitude[deg],Longitude[deg],Time Zone[],Elevation[m]
2,8,Day of Simulation[],Month[],Day of Month[],DST Indicator[1=yes 0=no],Hour[],StartMinute[],EndMinute[],DayType
3,5,Cumulative Day of Simulation[],Month[],Day of Month[],DST Indicator[1=yes 0=no],DayType  ! When Daily Report Variables Requested
4,2,Cumulative Days of Simulation[],Month[]  ! When Monthly Report Variables Requested
5,1,Cumulative Days of Simulation[] ! When Run Period Report Variables Requested
6,1,Calendar Year of Simulation[] ! When Annual Report Variables Requested
7,7,Environment,Site Outdoor Air Drybulb Temperature [C] !Daily [Value,Min,Hour,Minute,Max,Hour,Minute]
8,7,Environment,Site Outdoor Air Dewpoint Temperature [C] !Daily [Value,Min,Hour,Minute,Max,Hour,Minute]
9,7,Environment,Site Outdoor Air Wetbulb Temperature [C] !Daily [Value,Min,Hour,Minute,Max,Hour,Minute]
10,7,Environment,Site Diffuse Solar Radiation Rate per Area [W/m2] !Daily [Value,Min,Hour,Minute,Max,Hour,Minute]
11,7,Environment,Site Direct Solar Radiation Rate per Area [W/m2] !Daily [Value,Min,Hour,Minute,Max,Hour,Minute]
12,7,Environment,Site Solar Azimuth Angle [deg] !Daily [Value,Min,Hour,Minute,Max,Hour,Minute]
13,7,Environment,Site Solar Altitude Angle [deg] !Daily [Value,Min,Hour,Minute,Max,Hour,Minute]
2844,7,MYDHW_0_WATERHEATER,Water Heater Heating Energy [J] !Daily [Value,Min,Hour,Minute,Max,Hour,Minute]
2983,7,SCENARIO_4_WATERHEATER,Water Heater Heating Energy [J] !Daily [Value,Min,Hour,Minute,Max,Hour,Minute]
1528,1,Heating:EnergyTransfer [J] !Hourly
1577,1,Cooling:EnergyTransfer [J] !Hourly
16,1,Electricity:Facility [J] !Hourly
End of Data Dictionary
1,RUN PERIOD 1,  52.46,   5.52,   1.00,  -3.90
2,1, 1, 1, 0, 1, 0.00,60.00,Tuesday
16,3237382.5153654446
1528,197326615.4743697
1577,0.0
2,1, 1, 1, 0, 2, 0.00,60.00,Tuesday
16,3237382.5153654446
1528,189520309.8277874
1577,0.0
2,1, 1, 1, 0, 3, 0.00,60.00,Tuesday
16,3237382.5153654446
1528,192516013.5146281
1577,0.0
2,1, 1, 1, 0, 4, 0.00,60.00,Tuesday
16,5891840.751428055
1528,195092719.37880313
1577,0.0
2,1, 1, 1, 0, 5, 0.00,60.00,Tuesday
16,3237382.5153654446
1528,197006638.45824763
1577,0.0
2,1, 1, 1, 0, 6, 0.00,60.00,Tuesday
16,3237382.5153654446
1528,200073761.79067814
1577,0.0
2,1, 1, 1, 0, 7, 0.00,60.00,Tuesday
16,6139403.447623448
1528,203620272.14355153
1577,0.0
2,1, 1, 1, 0, 8, 0.00,60.00,Tuesday
16,6140077.78743838
1528,118960647.31385286
1577,0.0
2,1, 1, 1, 0, 9, 0.00,60.00,Tuesday
16,6225868.692030777
1528,128609601.08208425
1577,0.0
2,1, 1, 1, 0,10, 0.00,60.00,Tuesday
16,5402952.917711592
1528,128575933.83035572
1577,0.0
2,1, 1, 1, 0,11, 0.00,60.00,Tuesday
16,4110354.7467177566
1528,132365901.84931916
1577,0.0
2,1, 1, 1, 0,12, 0.00,60.00,Tuesday
16,3237382.5153654446
1528,139930280.33970582
1577,0.0
2,1, 1, 1, 0,13, 0.00,60.00,Tuesday
16,5966882.106229677
1528,143731211.07826757
1577,0.0
2,1, 1, 1, 0,14, 0.00,60.00,Tuesday
16,3237382.5153654446
1528,147203903.90644526
1577,0.0
2,1, 1, 1, 0,15, 0.00,60.00,Tuesday
16,5967290.719212638
1528,148940560.6784742
1577,0.0
2,1, 1, 1, 0,16, 0.00,60.00,Tuesday
16,3237382.5153654446
1528,152743114.52407765
1577,0.0
2,1, 1, 1, 0,17, 0.00,60.00,Tuesday
16,5622687.960010633
1528,150617924.5593815
1577,0.0
2,1, 1, 1, 0,18, 0.00,60.00,Tuesday
16,3607919.1820491
1528,144722218.2187431
1577,0.0
2,1, 1, 1, 0,19, 0.00,60.00,Tuesday
16,6170304.330011306
1528,138334225.7530554
1577,0.0
2,1, 1, 1, 0,20, 0.00,60.00,Tuesday
16,6170352.540309029
1528,219418126.4795423
1577,0.0
2,1, 1, 1, 0,21, 0.00,60.00,Tuesday
16,6170751.488309231
1528,207930398.62725425
1577,0.0
2,1, 1, 1, 0,22, 0.00,60.00,Tuesday
16,3237382.5153654446
1528,202444047.43073788
1577,0.0
2,1, 1, 1, 0,23, 0.00,60.00,Tuesday
16,6139671.401572954
1528,207607839.12146762
1577,0.0
2,1, 1, 1, 0,24, 0.00,60.00,Tuesday
16,6139744.6220041225
1528,213610839.40707445
1577,0.0
3,1, 1, 1, 0,Tuesday
7,2.891666666666666,1.4,16,60,4.2, 1,60
8,-0.03749999999999998,-2.5,10,60,2.1,24,60
9,1.854739388525906,0.4001495373206364,13,60,3.0998073170807516, 1,60
10,17.307291666666668,0.0, 1,15,86.0,12,30
11,26.854166666666668,0.0, 1,15,152.0,10,30
12,171.9210012821981,1.7466514206994332, 1,45,341.00180793165543,24,60
13,-20.325946072972584,-60.625898049216175, 1,45,14.446671545683287,13,45
2844,33574828.465959325,0.0, 1,15,2689637.5589987994, 9,60
2983,0.0,0.0, 1,15,0.0, 1,15
2,2, 1, 2, 0, 1, 0.00,60.00,Wednesday
16,3237382.5153654446
1528,216595648.5128892
1577,0.0
2,2, 1, 2, 0, 2, 0.00,60.00,Wednesday
16,3237382.5153654446
1528,211993845.48796886
1577,0.0
2,2, 1, 2, 0, 3, 0.00,60.00,Wednesday
16,5891660.001832884
1528,210819561.61735225
1577,0.0
2,2, 1, 2, 0, 4, 0.00,60.00,Wednesday
16,3237382.5153654446
1528,215661305.0603909
1577,0.0
2,2, 1, 2, 0, 5, 0.00,60.00,Wednesday
16,3237382.5153654446
1528,207408804.84426636
1577,0.0
2,2, 1, 2, 0, 6, 0.00,60.00,Wednesday
16,3237382.5153654446
1528,201241096.45163283
1577,0.0
2,2, 1, 2, 0, 7, 0.00,60.00,Wednesday
16,6140032.020056505
1528,197591888.36345828
1577,0.0
2,2, 1, 2, 0, 8, 0.00,60.00,Wednesday
16,6139353.774671648
1528,99885703.73161723
1577,0.0
2,2, 1, 2, 0, 9, 0.00,60.00,Wednesday
16,6306404.059791873
1528,97975284.11516525
1577,0.0
2,2, 1, 2, 0,10, 0.00,60.00,Wednesday
16,6305851.5856649745
1528,100107661.28408995
1577,0.0
2,2, 1, 2, 0,11, 0.00,60.00,Wednesday
16,3237382.5153654446
1528,102569789.44993065
1577,0.0
2,2, 1, 2, 0,12, 0.00,60.00,Wednesday
16,5966689.599480715
1528,112816541.66239682
1577,0.0
2,2, 1, 2, 0,13, 0.00,60.00,Wednesday
16,3237382.5153654446
1528,116434717.35725136
1577,0.0
2,2, 1, 2, 0,14, 0.00,60.00,Wednesday
16,3257754.430057122
1528,117763724.06815371
1577,0.0
2,2, 1, 2, 0,15, 0.00,60.00,Wednesday
16,5946936.557190466
1528,105878649.67588183
1577,0.0
2,2, 1, 2, 0,16, 0.00,60.00,Wednesday
16,3237382.5153654446
1528,101714383.37290601
1577,0.0
2,2, 1, 2, 0,17, 0.00,60.00,Wednesday
16,5967254.531213707
1528,106687837.0364903
1577,0.0
2,2, 1, 2, 0,18, 0.00,60.00,Wednesday
16,5735878.064507859
1528,113100989.9567041
1577,0.0
2,2, 1, 2, 0,19, 0.00,60.00,Wednesday
16,3672070.0130082485
1528,128942736.40521158
1577,0.0
2,2, 1, 2, 0,20, 0.00,60.00,Wednesday
16,6170136.21479691
1528,222430492.18215585
1577,0.0
2,2, 1, 2, 0,21, 0.00,60.00,Wednesday
16,6170373.000005448
1528,214591557.9358143
1577,0.0
2,2, 1, 2, 0,22, 0.00,60.00,Wednesday
16,6140025.474488046
1528,210617089.46673447
1577,0.0
2,2, 1, 2, 0,23, 0.00,60.00,Wednesday
16,3237382.5153654446
1528,214188152.07432306
1577,0.0
2,2, 1, 2, 0,24, 0.00,60.00,Wednesday
16,6139355.193235287
1528,220279907.48835322
1577,0.0
3,2, 1, 2, 0,Wednesday
7,3.686458333333334,2.7,19,60,4.7,15,60
8,0.859375,-2.5,24,60,3.0, 8,60
9,2.7411140405471186,1.1746816380023941, 1,60,3.8128607493951674, 8,60
10,16.630208333333332,0.0, 1,15,76.0,12,30
11,62.854166666666664,0.0, 1,15,310.0,15,30
12,171.8131188905313,1.5259563868488346, 1,45,340.83120702053344,24,60
13,-20.25473323294449,-60.545572589949266, 1,45,14.530053212951353,13,45
2844,33650133.110568024,0.0, 1,15,2756889.472675335, 9,45
2983,0.0,0.0, 1,15,0.0, 1,15
2,3, 1, 3, 0, 1, 0.00,60.00,Thursday
16,3237382.5153654446
1528,231346679.06690586
1577,0.0
2,3, 1, 3, 0, 2, 0.00,60.00,Thursday
16,5892047.669174961
1528,238222993.80814523
1577,0.0
2,3, 1, 3, 0, 3, 0.00,60.00,Thursday
16,3237382.5153654446
1528,238904057.51136494
1577,0.0
2,3, 1, 3, 0, 4, 0.00,60.00,Thursday
16,3237382.5153654446
1528,244853649.72720787
1577,0.0
2,3, 1, 3, 0, 5, 0.00,60.00,Thursday
16,3237382.5153654446
1528,244887640.7226401
1577,0.0
2,3, 1, 3, 0, 6, 0.00,60.00,Thursday
16,5891572.774772317
1528,248761824.60409313
1577,0.0
2,3, 1, 3, 0, 7, 0.00,60.00,Thursday
16,3570523.468581154
1528,255964651.2224453
1577,0.0
2,3, 1, 3, 0, 8, 0.00,60.00,Thursday
16,5805865.274499069
1528,166547166.26487446
1577,0.0
2,3, 1, 3, 0, 9, 0.00,60.00,Thursday
16,6306576.6237610085
1528,172861745.5096384
1577,0.0
2,3, 1, 3, 0,10, 0.00,60.00,Thursday
16,6306429.946616868
1528,168613537.15736252
1577,0.0
2,3, 1, 3, 0,11, 0.00,60.00,Thursday
16,4853379.580419908
1528,152946294.87278172
1577,0.0
2,3, 1, 3, 0,12, 0.00,60.00,Thursday
16,4350696.961983721
1528,143851914.32802156
1577,0.0
2,3, 1, 3, 0,13, 0.00,60.00,Thursday
16,3237382.5153654446
1528,141601347.49433297
1577,0.0
2,3, 1, 3, 0,14, 0.00,60.00,Thursday
16,5967023.3127716035
1528,148281123.66496035
1577,0.0
2,3, 1, 3, 0,15, 0.00,60.00,Thursday
16,3237382.5153654446
1528,150532085.46441156
1577,0.0
2,3, 1, 3, 0,16, 0.00,60.00,Thursday
16,5967276.33484074
1528,165068546.91958246
1577,0.0
2,3, 1, 3, 0,17, 0.00,60.00,Thursday
16,3237382.5153654446
1528,182058464.85029152
1577,0.0
2,3, 1, 3, 0,18, 0.00,60.00,Thursday
16,6170454.428438097
1528,193879966.92075294
1577,0.0
2,3, 1, 3, 0,19, 0.00,60.00,Thursday
16,6170978.7212913
1528,205669063.04307613
1577,0.0
2,3, 1, 3, 0,20, 0.00,60.00,Thursday
16,3237382.5153654446
1528,298056515.47306216
1577,0.0
2,3, 1, 3, 0,21, 0.00,60.00,Thursday
16,6170960.385780613
1528,286272684.496754
1577,0.0
2,3, 1, 3, 0,22, 0.00,60.00,Thursday
16,6139584.486799179
1528,276618587.387928
1577,0.0
2,3, 1, 3, 0,23, 0.00,60.00,Thursday
16,6139856.041656142
1528,265602577.8323413
1577,0.0
2,3, 1, 3, 0,24, 0.00,60.00,Thursday
16,3237382.5153654446
1528,255292107.0497019
1577,0.0
3,3, 1, 3, 0,Thursday
7,1.1666666666666665,-1.0,19,60,2.775, 1,15
8,-0.6007504992247794,-2.2,13,60,1.3,24,60
9,0.3890060654580482,-1.321738782587282,19,60,2.1129291271731074, 1,15
10,14.333333333333334,0.0, 1,15,65.0,13,30
11,122.921875,0.0, 1,15,558.0,13,30
12,171.70635220439564,1.3083254005832814, 1,45,340.6669445746221,24,60
13,-20.176959693862347,-60.45738645598138, 1,45,14.6208584194948,13,45
2844,33428239.45281451,0.0, 1,15,2762274.697556008, 9,30
2983,0.0,0.0, 1,15,0.0, 1,15
2,4, 1, 4, 0, 1, 0.00,60.00,Friday
16,5892044.916209001
1528,291182878.3366919
1577,0.0
2,4, 1, 4, 0, 2, 0.00,60.00,Friday
16,3237382.5153654446
1528,317641988.755929
1577,0.0
2,4, 1, 4, 0, 3, 0.00,60.00,Friday
16,3237382.5153654446
1528,321379800.0124905
1577,0.0
2,4, 1, 4, 0, 4, 0.00,60.00,Friday
16,4001083.31523274
1528,326385389.64165044
1577,0.0
2,4, 1, 4, 0, 5, 0.00,60.00,Friday
16,5127899.490696622
1528,330947270.20906496
1577,0.0
2,4, 1, 4, 0, 6, 0.00,60.00,Friday
16,3237382.5153654446
1528,334790257.0445615
1577,0.0
2,4, 1, 4, 0, 7, 0.00,60.00,Friday
16,6140004.65703766
1528,340173980.7143253
1577,0.0
2,4, 1, 4, 0, 8, 0.00,60.00,Friday
16,4515636.2885333905
1528,241868599.31164277
1577,0.0
2,4, 1, 4, 0, 9, 0.00,60.00,Friday
16,5401658.272611513
1528,235417783.73245072
1577,0.0
2,4, 1, 4, 0,10, 0.00,60.00,Friday
16,5859846.867318335
1528,228209815.14303395
1577,0.0
2,4, 1, 4, 0,11, 0.00,60.00,Friday
16,5967258.911342597
1528,220744940.04735118
1577,0.0
2,4, 1, 4, 0,12, 0.00,60.00,Friday
16,3237382.5153654446
1528,213233501.23148733
1577,0.0
2,4, 1, 4, 0,13, 0.00,60.00,Friday
16,5966743.043707415
1528,205747505.10806197
1577,0.0
2,4, 1, 4, 0,14, 0.00,60.00,Friday
16,3237382.5153654446
1528,206723663.88045698
1577,0.0
2,4, 1, 4, 0,15, 0.00,60.00,Friday
16,5966883.426277965
1528,212848736.4094288
1577,0.0
2,4, 1, 4, 0,16, 0.00,60.00,Friday
16,3237382.5153654446
1528,219196690.37406382
1577,0.0
2,4, 1, 4, 0,17, 0.00,60.00,Friday
16,3237382.5153654446
1528,226770070.67440057
1577,0.0
2,4, 1, 4, 0,18, 0.00,60.00,Friday
16,6171004.63332418
1528,233622825.5718823
1577,0.0
2,4, 1, 4, 0,19, 0.00,60.00,Friday
16,6170913.855149217
1528,239674745.5907644
1577,0.0
2,4, 1, 4, 0,20, 0.00,60.00,Friday
16,6170520.85393964
1528,347843750.3185817
1577,0.0
2,4, 1, 4, 0,21, 0.00,60.00,Friday
16,4914887.004681429
1528,355659525.40122306
1577,0.0
2,4, 1, 4, 0,22, 0.00,60.00,Friday
16,4479357.245103861
1528,358874728.8629818
1577,0.0
2,4, 1, 4, 0,23, 0.00,60.00,Friday
16,6140047.786964581
1528,371993778.5987423
1577,0.0
2,4, 1, 4, 0,24, 0.00,60.00,Friday
16,6139359.119446503
1528,379877705.52992666
1577,0.0
3,4, 1, 4, 0,Friday
7,-2.370833333333333,-5.0,23,60,0.5999999999999999, 1,15
8,-3.617708333333334,-7.7,24,60,0.3750000000000001, 1,15
9,-2.8442852708335775,-5.828734757976214,24,60,0.4861570244684519, 1,15
10,14.375,0.0, 1,15,66.0,13,30
11,129.13541666666666,0.0, 1,15,576.0,13,30
12,171.60081020210077,1.0940828941618326, 1,45,340.50922888156305,24,60
13,-20.09265613455602,-60.36138875158809, 1,45,14.71905019080346,13,45
2844,35990682.23372768,0.0, 1,15,2640259.906162862,18,15
2983,0.0,0.0, 1,15,0.0, 1,15
2,5, 1, 5, 0, 1, 0.00,60.00,Saturday
16,3237382.5153654446
1528,378049910.51342285
1577,0.0
2,5, 1, 5, 0, 2, 0.00,60.00,Saturday
16,3237382.5153654446
1528,378077545.26746446
1577,0.0
2,5, 1, 5, 0, 3, 0.00,60.00,Saturday
16,3697745.5234493474
1528,379783368.56389666
1577,0.0
2,5, 1, 5, 0, 4, 0.00,60.00,Saturday
16,5431384.589757575
1528,381522657.39482963
1577,0.0
2,5, 1, 5, 0, 5, 0.00,60.00,Saturday
16,3237382.5153654446
1528,383288002.9974618
1577,0.0
2,5, 1, 5, 0, 6, 0.00,60.00,Saturday
16,3237382.5153654446
1528,385076582.48862696
1577,0.0
2,5, 1, 5, 0, 7, 0.00,60.00,Saturday
16,6139590.814660708
1528,388620979.4516635
1577,0.0
2,5, 1, 5, 0, 8, 0.00,60.00,Saturday
16,6139846.509311555
1528,288888465.1384748
1577,0.0
2,5, 1, 5, 0, 9, 0.00,60.00,Saturday
16,6305924.269211214
1528,281029332.33671963
1577,0.0
2,5, 1, 5, 0,10, 0.00,60.00,Saturday
16,6306586.52850854
1528,272801811.1384387
1577,0.0
2,5, 1, 5, 0,11, 0.00,60.00,Saturday
16,3237382.5153654446
1528,263836056.72062784
1577,0.0
2,5, 1, 5, 0,12, 0.00,60.00,Saturday
16,3388772.724781353
1528,254112475.6296687
1577,0.0
2,5, 1, 5, 0,13, 0.00,60.00,Saturday
16,5815805.85988432
1528,245666654.6880688
1577,0.0
2,5, 1, 5, 0,14, 0.00,60.00,Saturday
16,3237382.5153654446
1528,244052287.66034937
1577,0.0
2,5, 1, 5, 0,15, 0.00,60.00,Saturday
16,5967262.371393818
1528,247380308.62635437
1577,0.0
2,5, 1, 5, 0,16, 0.00,60.00,Saturday
16,3237382.5153654446
1528,250408479.93573165
1577,0.0
2,5, 1, 5, 0,17, 0.00,60.00,Saturday
16,5966760.459887547
1528,252668844.72026438
1577,0.0
2,5, 1, 5, 0,18, 0.00,60.00,Saturday
16,3237382.5153654446
1528,255914174.4385507
1577,0.0
2,5, 1, 5, 0,19, 0.00,60.00,Saturday
16,6171010.796088161
1528,258591161.21729332
1577,0.0
2,5, 1, 5, 0,20, 0.00,60.00,Saturday
16,6170919.973411114
1528,353165982.43004704
1577,0.0
2,5, 1, 5, 0,21, 0.00,60.00,Saturday
16,6170549.396739969
1528,351678931.3602347
1577,0.0
2,5, 1, 5, 0,22, 0.00,60.00,Saturday
16,3844348.953094499
1528,350589367.1961015
1577,0.0
2,5, 1, 5, 0,23, 0.00,60.00,Saturday
16,5532658.337065174
1528,348219130.8523405
1577,0.0
2,5, 1, 5, 0,24, 0.00,60.00,Saturday
16,6139800.711595431
1528,347556721.1351483
1577,0.0
3,5, 1, 5, 0,Saturday
7,-4.088541666666665,-5.5, 7,60,-2.8,13,60
8,-7.080208333333332,-7.45, 1,15,-6.7, 1,60
9,-5.141229228510597,-6.135298049949361, 7,60,-4.298956651781032,13,60
10,14.5703125,0.0, 1,15,65.0,13,30
11,132.4921875,0.0, 1,15,603.0,13,30
12,171.49660012976298,0.8835410953785034, 1,45,340.35825202416595,24,60
13,-20.001856138640335,-60.257633494339274, 1,45,14.82458830946985,13,45
2844,33651762.8156939,0.0, 1,15,2753562.8148972127,10,60
2983,0.0,0.0, 1,15,0.0, 1,15
2,6, 1, 6, 0, 1, 0.00,60.00,Sunday
16,3237382.5153654446
1528,346984693.89829755
1577,0.0
2,6, 1, 6, 0, 2, 0.00,60.00,Sunday
16,3237382.5153654446
1528,349032194.7393617
1577,0.0
2,6, 1, 6, 0, 3, 0.00,60.00,Sunday
16,5892042.6824106295
1528,351433975.198728
1577,0.0
2,6, 1, 6, 0, 4, 0.00,60.00,Sunday
16,3237382.5153654446
1528,354356724.4833827
1577,0.0
2,6, 1, 6, 0, 5, 0.00,60.00,Sunday
16,3237382.5153654446
1528,358042811.1896874
1577,0.0
2,6, 1, 6, 0, 6, 0.00,60.00,Sunday
16,5891625.3663440235
1528,360520299.8224658
1577,0.0
2,6, 1, 6, 0, 7, 0.00,60.00,Sunday
16,3237382.5153654446
1528,365142883.95386326
1577,0.0
2,6, 1, 6, 0, 8, 0.00,60.00,Sunday
16,6139241.18613331
1528,270167312.8712068
1577,0.0
2,6, 1, 6, 0, 9, 0.00,60.00,Sunday
16,6305794.575008899
1528,267959093.06836343
1577,0.0
2,6, 1, 6, 0,10, 0.00,60.00,Sunday
16,6305873.003214853
1528,266205625.83337882
1577,0.0
2,6, 1, 6, 0,11, 0.00,60.00,Sunday
16,3237382.5153654446
1528,263691328.8055603
1577,0.0
2,6, 1, 6, 0,12, 0.00,60.00,Sunday
16,5966957.351527609
1528,260292814.0619101
1577,0.0
2,6, 1, 6, 0,13, 0.00,60.00,Sunday
16,3237382.5153654446
1528,256850007.68695843
1577,0.0
2,6, 1, 6, 0,14, 0.00,60.00,Sunday
16,5967282.587158723
1528,253415997.90995875
1577,0.0
2,6, 1, 6, 0,15, 0.00,60.00,Sunday
16,3237382.5153654446
1528,249943999.10995787
1577,0.0
2,6, 1, 6, 0,16, 0.00,60.00,Sunday
16,5486764.970722124
1528,247693942.19325486
1577,0.0
2,6, 1, 6, 0,17, 0.00,60.00,Sunday
16,3717522.79522559
1528,244944127.95684206
1577,0.0
2,6, 1, 6, 0,18, 0.00,60.00,Sunday
16,6170441.12291532
1528,241411028.6059764
1577,0.0
2,6, 1, 6, 0,19, 0.00,60.00,Sunday
16,4755186.8231868595
1528,237850605.33066013
1577,0.0
2,6, 1, 6, 0,20, 0.00,60.00,Sunday
16,4652270.829568872
1528,330308745.7468757
1577,0.0
2,6, 1, 6, 0,21, 0.00,60.00,Sunday
16,6170471.296115862
1528,329256441.9555915
1577,0.0
2,6, 1, 6, 0,22, 0.00,60.00,Sunday
16,6140032.009581994
1528,328577610.4568392
1577,0.0
2,6, 1, 6, 0,23, 0.00,60.00,Sunday
16,4758424.938351827
1528,326716331.4068094
1577,0.0
2,6, 1, 6, 0,24, 0.00,60.00,Sunday
16,4618311.354510437
1528,326464007.37096787
1577,0.0
3,6, 1, 6, 0,Sunday
7,-3.4229166666666675,-4.6, 7,60,-2.4,19,60
8,-4.572395833333333,-7.1, 1,15,-3.0,24,60
9,-3.8650041755420497,-4.887844760743663, 2,60,-2.6504321491632616,24,60
10,16.927083333333332,0.0, 1,15,89.0,12,30
11,4.8203125,0.0, 1,15,29.0,15,30
12,171.39382734271808,0.676999179191866, 1,45,340.21418969258576,24,60
13,-19.90459616452433,-60.14617945944964, 1,45,14.937429352245028,13,45
2844,33426110.381516837,0.0, 1,15,2612384.544794895,22,45
2983,0.0,0.0, 1,15,0.0, 1,15
2,7, 1, 7, 0, 1, 0.00,60.00,Monday
16,5892038.1037598625
1528,326307188.2216178
1577,0.0
2,7, 1, 7, 0, 2, 0.00,60.00,Monday
16,3237382.5153654446
1528,343480467.7829313
1577,0.0
2,7, 1, 7, 0, 3, 0.00,60.00,Monday
16,3237382.5153654446
1528,372573315.26769
1577,0.0
2,7, 1, 7, 0, 4, 0.00,60.00,Monday
16,3237382.5153654446
1528,402834279.1738763
1577,0.0
2,7, 1, 7, 0, 5, 0.00,60.00,Monday
16,5891684.461120566
1528,432250105.1463334
1577,0.0
2,7, 1, 7, 0, 6, 0.00,60.00,Monday
16,3237382.5153654446
1528,461262564.90762174
1577,0.0
2,7, 1, 7, 0, 7, 0.00,60.00,Monday
16,6139756.422694221
1528,494177867.0122299
1577,0.0
2,7, 1, 7, 0, 8, 0.00,60.00,Monday
16,3237382.5153654446
1528,396222612.27962375
1577,0.0
2,7, 1, 7, 0, 9, 0.00,60.00,Monday
16,6306337.754419544
1528,377212434.7413759
1577,0.0
2,7, 1, 7, 0,10, 0.00,60.00,Monday
16,6305828.141123604
1528,357582946.8145884
1577,0.0
2,7, 1, 7, 0,11, 0.00,60.00,Monday
16,5966771.085284733
1528,337816615.33922386
1577,0.0
2,7, 1, 7, 0,12, 0.00,60.00,Monday
16,3237382.5153654446
1528,318024343.1308913
1577,0.0
2,7, 1, 7, 0,13, 0.00,60.00,Monday
16,5967306.330974886
1528,298347789.6826428
1577,0.0
2,7, 1, 7, 0,14, 0.00,60.00,Monday
16,3237382.5153654446
1528,287434783.77879
1577,0.0
2,7, 1, 7, 0,15, 0.00,60.00,Monday
16,3237382.5153654446
1528,283057292.8288746
1577,0.0
2,7, 1, 7, 0,16, 0.00,60.00,Monday
16,5967169.223611684
1528,278346863.38314205
1577,0.0
2,7, 1, 7, 0,17, 0.00,60.00,Monday
16,3237382.5153654446
1528,274129088.6471205
1577,0.0
2,7, 1, 7, 0,18, 0.00,60.00,Monday
16,6170576.573449895
1528,269229275.00404215
1577,0.0
2,7, 1, 7, 0,19, 0.00,60.00,Monday
16,6171023.609620193
1528,264760279.4004126
1577,0.0
2,7, 1, 7, 0,20, 0.00,60.00,Monday
16,6170932.7958150115
1528,354607195.1657805
1577,0.0
2,7, 1, 7, 0,21, 0.00,60.00,Monday
16,3237382.5153654446
1528,348640181.0534408
1577,0.0
2,7, 1, 7, 0,22, 0.00,60.00,Monday
16,6139623.880293176
1528,342479772.92618185
1577,0.0
2,7, 1, 7, 0,23, 0.00,60.00,Monday
16,6139801.587633649
1528,335617280.30002755
1577,0.0
2,7, 1, 7, 0,24, 0.00,60.00,Monday
16,5692394.797600705
1528,329942957.5739157
1577,0.0
3,7, 1, 7, 0,Monday
7,-5.505729166666664,-11.1, 7,60,-2.3,24,60
8,-6.389583333333333,-12.1, 7,60,-2.9, 1,60
9,-5.813797856992925,-11.366139782034363, 7,60,-2.600129425188394, 1,60
10,18.200520833333332,0.0, 1,15,84.0,12,30
11,80.8359375,0.0, 1,15,390.0,13,30
12,171.29259514926343,0.4747425056558858, 1,45,340.0772010768144,24,60
13,-19.800915512093123,-60.02709001319141, 1,45,15.057526730624629,13,45
2844,35638100.597056955,0.0, 1,15,2688168.707569132, 9,15
2983,0.0,0.0, 1,15,0.0, 1,15
2,8, 1, 8, 0, 1, 0.00,60.00,Tuesday
16,3645687.1631699856
1528,324871302.95973223
1577,0.0
2,8, 1, 8, 0, 2, 0.00,60.00,Tuesday
16,3237382.5153654446
1528,322999179.3766587
1577,0.0
2,8, 1, 8, 0, 3, 0.00,60.00,Tuesday
16,3237382.5153654446
1528,322611605.09356713
1577,0.0
2,8, 1, 8, 0, 4, 0.00,60.00,Tuesday
16,5892081.913476393
1528,323491633.59571826
1577,0.0
2,8, 1, 8, 0, 5, 0.00,60.00,Tuesday
16,3237382.5153654446
1528,323895788.4275404
1577,0.0
2,8, 1, 8, 0, 6, 0.00,60.00,Tuesday
16,3237382.5153654446
1528,323580305.6549578
1577,0.0
2,8, 1, 8, 0, 7, 0.00,60.00,Tuesday
16,6139374.340219378
1528,324731364.46376145
1577,0.0
2,8, 1, 8, 0, 8, 0.00,60.00,Tuesday
16,6140061.893255845
1528,221401430.46761885
1577,0.0
2,8, 1, 8, 0, 9, 0.00,60.00,Tuesday
16,6123633.197680716
1528,210608088.77011785
1577,0.0
2,8, 1, 8, 0,10, 0.00,60.00,Tuesday
16,5402812.571040822
1528,198549922.70068505
1577,0.0
2,8, 1, 8, 0,11, 0.00,60.00,Tuesday
16,4201233.514678192
1528,187980802.12870508
1577,0.0
2,8, 1, 8, 0,12, 0.00,60.00,Tuesday
16,3237382.5153654446
1528,182319255.71749806
1577,0.0
2,8, 1, 8, 0,13, 0.00,60.00,Tuesday
16,5966931.110052341
1528,177549696.90635136
1577,0.0
2,8, 1, 8, 0,14, 0.00,60.00,Tuesday
16,3237382.5153654446
1528,174365646.4513175
1577,0.0
2,8, 1, 8, 0,15, 0.00,60.00,Tuesday
16,5967285.280427048
1528,166639663.52342626
1577,0.0
2,8, 1, 8, 0,16, 0.00,60.00,Tuesday
16,3237382.5153654446
1528,163619437.1573022
1577,0.0
2,8, 1, 8, 0,17, 0.00,60.00,Tuesday
16,5531778.614639547
1528,165526009.74863318
1577,0.0
2,8, 1, 8, 0,18, 0.00,60.00,Tuesday
16,3705672.3975498634
1528,160351989.4480102
1577,0.0
2,8, 1, 8, 0,19, 0.00,60.00,Tuesday
16,6170290.670201769
1528,153303099.2914436
1577,0.0
2,8, 1, 8, 0,20, 0.00,60.00,Tuesday
16,6170384.988889922
1528,238925518.75729495
1577,0.0
2,8, 1, 8, 0,21, 0.00,60.00,Tuesday
16,6170830.221338537
1528,226524276.57427007
1577,0.0
2,8, 1, 8, 0,22, 0.00,60.00,Tuesday
16,3237382.5153654446
1528,212499371.9747522
1577,0.0
2,8, 1, 8, 0,23, 0.00,60.00,Tuesday
16,6139608.182581349
1528,204940391.08735216
1577,0.0
2,8, 1, 8, 0,24, 0.00,60.00,Tuesday
16,6139822.405757896
1528,206164165.69204774
1577,0.0
3,8, 1, 8, 0,Tuesday
7,0.33385416666666695,-2.25, 1,15,4.0,23,60
8,-0.19583404686953979,-3.6, 7,60,4.0,23,60
9,0.1188314416176298,-2.7575005134912995, 7,60,4.0,23,60
10,6.432291666666667,0.0, 1,15,34.0,12,30
11,0.3151041666666667,0.0, 1,15,7.0,10,30
12,171.19300465716188,0.2770419467789127, 1,45,339.9474288361953,24,60
13,-19.69085628613162,-59.900432936670626, 1,45,15.184830734836614,13,45
2844,33938431.39720124,0.0, 1,30,2612411.4401013604, 8,60
2983,0.0,0.0, 1,15,0.0, 1,15
2,9, 1, 9, 0, 1, 0.00,60.00,Wednesday
16,3237382.5153654446
1528,209579508.93082234
1577,0.0
2,9, 1, 9, 0, 2, 0.00,60.00,Wednesday
16,3237382.5153654446
1528,220091584.68496507
1577,0.0
2,9, 1, 9, 0, 3, 0.00,60.00,Wednesday
16,5891835.134540625
1528,233738118.7323968
1577,0.0
2,9, 1, 9, 0, 4, 0.00,60.00,Wednesday
16,3237382.5153654446
1528,237288901.13682976
1577,0.0
2,9, 1, 9, 0, 5, 0.00,60.00,Wednesday
16,3237382.5153654446
1528,225767509.4844885
1577,0.0
2,9, 1, 9, 0, 6, 0.00,60.00,Wednesday
16,3237382.5153654446
1528,213358070.6889766
1577,0.0
2,9, 1, 9, 0, 7, 0.00,60.00,Wednesday
16,6140020.214374949
1528,209433198.6138193
1577,0.0
2,9, 1, 9, 0, 8, 0.00,60.00,Wednesday
16,6139357.91059042
1528,123256891.32298112
1577,0.0
2,9, 1, 9, 0, 9, 0.00,60.00,Wednesday
16,6306338.158611384
1528,122046201.86647694
1577,0.0
2,9, 1, 9, 0,10, 0.00,60.00,Wednesday
16,6305828.276693945
1528,112729682.11028735
1577,0.0
2,9, 1, 9, 0,11, 0.00,60.00,Wednesday
16,3237382.5153654446
1528,102768992.84258324
1577,0.0
2,9, 1, 9, 0,12, 0.00,60.00,Wednesday
16,5966720.792568714
1528,92005259.32535847
1577,0.0
2,9, 1, 9, 0,13, 0.00,60.00,Wednesday
16,3237382.5153654446
1528,81261542.55365431
1577,0.0
2,9, 1, 9, 0,14, 0.00,60.00,Wednesday
16,3237382.5153654446
1528,79665661.09650794
1577,0.0
2,9, 1, 9, 0,15, 0.00,60.00,Wednesday
16,5967316.9261930715
1528,82370006.23802835
1577,0.0
2,9, 1, 9, 0,16, 0.00,60.00,Wednesday
16,3237382.5153654446
1528,85464651.0306593
1577,0.0
2,9, 1, 9, 0,17, 0.00,60.00,Wednesday
16,5967243.284508762
1528,89174865.69693434
1577,0.0
2,9, 1, 9, 0,18, 0.00,60.00,Wednesday
16,5638416.466382473
1528,91741067.14664406
1577,0.0
2,9, 1, 9, 0,19, 0.00,60.00,Wednesday
16,3769476.234653622
1528,94812438.77808702
1577,0.0
2,9, 1, 9, 0,20, 0.00,60.00,Wednesday
16,6170156.66943229
1528,186909239.40599054
1577,0.0
2,9, 1, 9, 0,21, 0.00,60.00,Wednesday
16,6170409.2867413955
1528,164696844.4754165
1577,0.0
2,9, 1, 9, 0,22, 0.00,60.00,Wednesday
16,6140013.654446898
1528,145818822.86304152
1577,0.0
2,9, 1, 9, 0,23, 0.00,60.00,Wednesday
16,3237382.5153654446
1528,137807498.05466974
1577,0.0
2,9, 1, 9, 0,24, 0.00,60.00,Wednesday
16,6139363.169020647
1528,135312344.76314783
1577,0.0
3,9, 1, 9, 0,Wednesday
7,4.736458333333332,2.1, 3,60,7.6,23,60
8,4.126040580561692,1.9, 1,60,5.999997196412721,13,60
9,4.590807866781274,2.0999984741210938, 3,60,6.748006875248453,23,60
10,18.317708333333332,0.0, 1,15,94.0,12,30
11,18.375,0.0, 1,15,158.0,13,30
12,171.0951546233548,0.08415330395139851, 1,45,339.824999142154,24,60
13,-19.574463356569648,-59.76628024130013, 1,45,15.319288581092687,13,45
2844,33650226.86727868,0.0, 1,15,2688599.2876916965, 9,45
2983,0.0,0.0, 1,15,0.0, 1,15
2,10, 1,10, 0, 1, 0.00,60.00,Thursday
16,3237382.5153654446
1528,138355256.06210774
1577,0.0
2,10, 1,10, 0, 2, 0.00,60.00,Thursday
16,5892036.675738498
1528,145636823.06123286
1577,0.0
2,10, 1,10, 0, 3, 0.00,60.00,Thursday
16,3237382.5153654446
1528,168000179.3936414
1577,0.0
2,10, 1,10, 0, 4, 0.00,60.00,Thursday
16,3237382.5153654446
1528,179334811.74891847
1577,0.0
2,10, 1,10, 0, 5, 0.00,60.00,Thursday
16,3237382.5153654446
1528,180212921.45005125
1577,0.0
2,10, 1,10, 0, 6, 0.00,60.00,Thursday
16,5891705.008269095
1528,180648190.7963367
1577,0.0
2,10, 1,10, 0, 7, 0.00,60.00,Thursday
16,3465434.9712886084
1528,181222587.41036484
1577,0.0
2,10, 1,10, 0, 8, 0.00,60.00,Thursday
16,5910956.418325529
1528,95058880.09718063
1577,0.0
2,10, 1,10, 0, 9, 0.00,60.00,Thursday
16,6306564.294667602
1528,103854631.59885153
1577,0.0
2,10, 1,10, 0,10, 0.00,60.00,Thursday
16,6306417.596542082
1528,111768877.79335561
1577,0.0
2,10, 1,10, 0,11, 0.00,60.00,Thursday
16,4665015.151251437
1528,97938354.26938292
1577,0.0
2,10, 1,10, 0,12, 0.00,60.00,Thursday
16,4539048.424870073
1528,88139064.63135362
1577,0.0
2,10, 1,10, 0,13, 0.00,60.00,Thursday
16,3237382.5153654446
1528,90684358.11225292
1577,0.0
2,10, 1,10, 0,14, 0.00,60.00,Thursday
16,5967160.0672389995
1528,91156260.3821133
1577,0.0
2,10, 1,10, 0,15, 0.00,60.00,Thursday
16,3237382.5153654446
1528,92980241.82888386
1577,0.0
2,10, 1,10, 0,16, 0.00,60.00,Thursday
16,5967265.060506975
1528,97940158.22382286
1577,0.0
2,10, 1,10, 0,17, 0.00,60.00,Thursday
16,3237382.5153654446
1528,103502090.71704802
1577,0.0
2,10, 1,10, 0,18, 0.00,60.00,Thursday
16,6170503.1781367455
1528,118097809.36743866
1577,0.0
2,10, 1,10, 0,19, 0.00,60.00,Thursday
16,6171039.267942496
1528,123366180.49713525
1577,0.0
2,10, 1,10, 0,20, 0.00,60.00,Thursday
16,3237382.5153654446
1528,214995474.601983
1577,0.0
2,10, 1,10, 0,21, 0.00,60.00,Thursday
16,6170948.469606238
1528,216890359.6995752
1577,0.0
2,10, 1,10, 0,22, 0.00,60.00,Thursday
16,6139531.339016896
1528,219597968.2857802
1577,0.0
2,10, 1,10, 0,23, 0.00,60.00,Thursday
16,6139943.350979593
1528,221590538.7536444
1577,0.0
2,10, 1,10, 0,24, 0.00,60.00,Thursday
16,3237382.5153654446
1528,212054069.0374231
1577,0.0
3,10, 1,10, 0,Thursday
7,4.616666666666666,2.7,23,60,7.5249999999999995, 1,15
8,2.0005208333333333,0.2, 7,60,5.3999999999999995, 1,15
9,3.6733112254525153,2.509699567522247,23,60,6.459245160919081, 1,15
10,18.4375,0.0, 1,15,91.0,13,30
11,35.565104166666664,0.0, 1,15,199.0,10,30
12,171.00130137365522,0.1036831833804491, 1,45,339.71002178991677,24,60
13,-19.451784315637955,-59.624707977317236, 1,45,15.460844461957508,13,45
2844,33428548.389509283,0.0, 1,15,2762263.601371941, 9,30
2983,0.0,0.0, 1,15,0.0, 1,15
2,11, 1,11, 0, 1, 0.00,60.00,Friday
16,5892033.882361221
1528,204245782.1291029
1577,0.0
2,11, 1,11, 0, 2, 0.00,60.00,Friday
16,3237382.5153654446
1528,206782811.67304242
1577,0.0
2,11, 1,11, 0, 3, 0.00,60.00,Friday
16,3237382.5153654446
1528,212254872.494927
1577,0.0
2,11, 1,11, 0, 4, 0.00,60.00,Friday
16,3696869.6556190317
1528,217789738.8377826
1577,0.0
2,11, 1,11, 0, 5, 0.00,60.00,Friday
16,5432260.9681987725
1528,221064029.97148106
1577,0.0
2,11, 1,11, 0, 6, 0.00,60.00,Friday
16,3237382.5153654446
1528,219502149.70137215
1577,0.0
2,11, 1,11, 0, 7, 0.00,60.00,Friday
16,6139992.799503885
1528,217981161.17704952
1577,0.0
2,11, 1,11, 0, 8, 0.00,60.00,Friday
16,4410599.501057345
1528,126353844.55431174
1577,0.0
2,11, 1,11, 0, 9, 0.00,60.00,Friday
16,5401644.3444352895
1528,133724012.86357263
1577,0.0
2,11, 1,11, 0,10, 0.00,60.00,Friday
16,5971006.235674404
1528,134376800.56375614
1577,0.0
2,11, 1,11, 0,11, 0.00,60.00,Friday
16,5967242.39424692
1528,115607199.72628488
1577,0.0
2,11, 1,11, 0,12, 0.00,60.00,Friday
16,3237382.5153654446
1528,114773315.28344029
1577,0.0
2,11, 1,11, 0,13, 0.00,60.00,Friday
16,5966689.566907747
1528,115965701.04498461
1577,0.0
2,11, 1,11, 0,14, 0.00,60.00,Friday
16,3237382.5153654446
1528,116981398.5460689
1577,0.0
2,11, 1,11, 0,15, 0.00,60.00,Friday
16,5967049.07552922
1528,110298587.22193968
1577,0.0
2,11, 1,11, 0,16, 0.00,60.00,Friday
16,3237382.5153654446
1528,122417617.00854662
1577,0.0
2,11, 1,11, 0,17, 0.00,60.00,Friday
16,3237382.5153654446
1528,136637150.18112344
1577,0.0
2,11, 1,11, 0,18, 0.00,60.00,Friday
16,6170987.213516913