Program Version,EnergyPlus, Version 23.2.0-7636e6b3e9, YMD=2025.02.02 11:18
1,5,Environment Title[],Latitude[deg],Longitude[deg],Time Zone[],Elevation[m]
2,8,Day of Simulation[],Month[],Day of Month[],DST Indicator[1=yes 0=no],Hour[],StartMinute[],EndMinute[],DayType
3,5,Cumulative Day of Simulation[],Month[],Day of Month[],DST Indicator[1=yes 0=no],DayType  ! When Daily Meters Requested
4,2,Cumulative Days of Simulation[],Month[]  ! When Monthly Meters Requested
5,1,Cumulative Days of Simulation[] ! When Run Period Meters Requested
6,1,Calendar Year of Simulation[] ! When Annual Meters Requested
1528,1,Heating:EnergyTransfer [J] !Hourly
1577,1,Cooling:EnergyTransfer [J] !Hourly
16,1,Electricity:Facility [J] !Hourly
End of Data Dictionary
1,RUN PERIOD 1,  52.46,   5.52,   1.00,  -3.90
2,1, 1, 1, 0, 1, 0.00,60.00,Tuesday
16,3237382.5153654446
1528,215803340.751091
1577,0.0
2,1, 1, 1, 0, 2, 0.00,60.00,Tuesday
16,3237382.5153654446
1528,207754937.26437023
1577,0.0
2,1, 1, 1, 0, 3, 0.00,60.00,Tuesday
16,3237382.5153654446
1528,210728260.92799607
1577,0.0
2,1, 1, 1, 0, 4, 0.00,60.00,Tuesday
16,5891840.751428055
1528,213286911.80281875
1577,0.0
2,1, 1, 1, 0, 5, 0.00,60.00,Tuesday
16,3237382.5153654446
1528,215186405.26441306
1577,0.0
2,1, 1, 1, 0, 6, 0.00,60.00,Tuesday
16,3237382.5153654446
1528,218247995.17261595
1577,0.0
2,1, 1, 1, 0, 7, 0.00,60.00,Tuesday
16,6139403.447623448
1528,221866443.07832506
1577,0.0
2,1, 1, 1, 0, 8, 0.00,60.00,Tuesday
16,6140077.787214572
1528,117136988.17710738
1577,0.0
2,1, 1, 1, 0, 9, 0.00,60.00,Tuesday
16,6225867.252089735
1528,127031624.4151186
1577,0.0
2,1, 1, 1, 0,10, 0.00,60.00,Tuesday
16,5402952.91567909
1528,127242573.46664281
1577,0.0
2,1, 1, 1, 0,11, 0.00,60.00,Tuesday
16,4110356.0265522385
1528,131190140.48264024
1577,0.0
2,1, 1, 1, 0,12, 0.00,60.00,Tuesday
16,3237382.5153654446
1528,138869578.42978823
1577,0.0
2,1, 1, 1, 0,13, 0.00,60.00,Tuesday
16,5966882.106882288
1528,142758706.8165917
1577,0.0
2,1, 1, 1, 0,14, 0.00,60.00,Tuesday
16,3237382.5153654446
1528,146301436.71449858
1577,0.0
2,1, 1, 1, 0,15, 0.00,60.00,Tuesday
16,5967290.719136055
1528,148095036.58082926
1577,0.0
2,1, 1, 1, 0,16, 0.00,60.00,Tuesday
16,3237382.5153654446
1528,151946267.0382201
1577,0.0
2,1, 1, 1, 0,17, 0.00,60.00,Tuesday
16,5622686.679700052
1528,149863795.92499548
1577,0.0
2,1, 1, 1, 0,18, 0.00,60.00,Tuesday
16,3607920.5587819256
1528,144004986.75350696
1577,0.0
2,1, 1, 1, 0,19, 0.00,60.00,Tuesday
16,6170304.329776322
1528,137648401.05822527
1577,0.0
2,1, 1, 1, 0,20, 0.00,60.00,Tuesday
16,6170352.542952051
1528,239505867.47688994
1577,0.0
2,1, 1, 1, 0,21, 0.00,60.00,Tuesday
16,6170751.495110253
1528,227429518.06543094
1577,0.0
2,1, 1, 1, 0,22, 0.00,60.00,Tuesday
16,3237382.5153654446
1528,221714363.18798783
1577,0.0
2,1, 1, 1, 0,23, 0.00,60.00,Tuesday
16,6139671.395577563
1528,226704160.10505995
1577,0.0
2,1, 1, 1, 0,24, 0.00,60.00,Tuesday
16,6139744.628676746
1528,232659465.02302703
1577,0.0
2,2, 1, 2, 0, 1, 0.00,60.00,Wednesday
16,3237382.5153654446
1528,235377348.24237302
1577,0.0
2,2, 1, 2, 0, 2, 0.00,60.00,Wednesday
16,3237382.5153654446
1528,230559273.70449466
1577,0.0
2,2, 1, 2, 0, 3, 0.00,60.00,Wednesday
16,5891660.014870315
1528,229317192.04834026
1577,0.0
2,2, 1, 2, 0, 4, 0.00,60.00,Wednesday
16,3237382.5153654446
1528,234124261.60708824
1577,0.0
2,2, 1, 2, 0, 5, 0.00,60.00,Wednesday
16,3237382.5153654446
1528,225802230.66408876
1577,0.0
2,2, 1, 2, 0, 6, 0.00,60.00,Wednesday
16,3237382.5153654446
1528,219577705.91423494
1577,0.0
2,2, 1, 2, 0, 7, 0.00,60.00,Wednesday
16,6140032.018995747
1528,215958965.5043473
1577,0.0
2,2, 1, 2, 0, 8, 0.00,60.00,Wednesday
16,6139353.774743723
1528,97478396.65006007
1577,0.0
2,2, 1, 2, 0, 9, 0.00,60.00,Wednesday
16,6306404.052440894
1528,96272191.9555838
1577,0.0
2,2, 1, 2, 0,10, 0.00,60.00,Wednesday
16,6305851.5829385035
1528,98659561.49392879
1577,0.0
2,2, 1, 2, 0,11, 0.00,60.00,Wednesday
16,3237382.5153654446
1528,101285573.40731744
1577,0.0
2,2, 1, 2, 0,12, 0.00,60.00,Wednesday
16,5966689.601630164
1528,111650361.61503388
1577,0.0
2,2, 1, 2, 0,13, 0.00,60.00,Wednesday
16,3237382.5153654446
1528,115359798.1631837
1577,0.0
2,2, 1, 2, 0,14, 0.00,60.00,Wednesday
16,3257733.996897221
1528,116763043.91393001
1577,0.0
2,2, 1, 2, 0,15, 0.00,60.00,Wednesday
16,5946957.008745708
1528,104938746.14321285
1577,0.0
2,2, 1, 2, 0,16, 0.00,60.00,Wednesday
16,3237382.5153654446
1528,100828411.42545488
1577,0.0
2,2, 1, 2, 0,17, 0.00,60.00,Wednesday
16,5967254.529990874
1528,105850444.97301145
1577,0.0
2,2, 1, 2, 0,18, 0.00,60.00,Wednesday
16,5735867.466351738
1528,112303941.87803522
1577,0.0
2,2, 1, 2, 0,19, 0.00,60.00,Wednesday
16,3672080.604817008
1528,128179369.18932557
1577,0.0
2,2, 1, 2, 0,20, 0.00,60.00,Wednesday
16,6170116.959983003
1528,242844626.7965603
1577,0.0
2,2, 1, 2, 0,21, 0.00,60.00,Wednesday
16,6170372.998626616
1528,234437232.31886953
1577,0.0
2,2, 1, 2, 0,22, 0.00,60.00,Wednesday
16,6140025.47497796
1528,230206420.6642642
1577,0.0
2,2, 1, 2, 0,23, 0.00,60.00,Wednesday
16,3237382.5153654446
1528,233567569.20962018
1577,0.0
2,2, 1, 2, 0,24, 0.00,60.00,Wednesday
16,6139355.193048938
1528,239583485.0514454
1577,0.0
2,3, 1, 3, 0, 1, 0.00,60.00,Thursday
16,3237382.5153654446
1528,250524146.6887941
1577,0.0
2,3, 1, 3, 0, 2, 0.00,60.00,Thursday
16,5892047.669630609
1528,257302482.2010652
1577,0.0
2,3, 1, 3, 0, 3, 0.00,60.00,Thursday
16,3237382.5153654446
1528,257925036.46954423
1577,0.0
2,3, 1, 3, 0, 4, 0.00,60.00,Thursday
16,3237382.5153654446
1528,263844365.5018236
1577,0.0
2,3, 1, 3, 0, 5, 0.00,60.00,Thursday
16,3237382.5153654446
1528,263836350.09686038
1577,0.0
2,3, 1, 3, 0, 6, 0.00,60.00,Thursday
16,5891572.7705277875
1528,267687429.80142844
1577,0.0
2,3, 1, 3, 0, 7, 0.00,60.00,Thursday
16,3570527.8247730425
1528,274958891.92006636
1577,0.0
2,3, 1, 3, 0, 8, 0.00,60.00,Thursday
16,5805845.50484388
1528,164062191.49733615
1577,0.0
2,3, 1, 3, 0, 9, 0.00,60.00,Thursday
16,6306576.625896684
1528,171046168.4327716
1577,0.0
2,3, 1, 3, 0,10, 0.00,60.00,Thursday
16,6306429.948756169
1528,167061000.84588173
1577,0.0
2,3, 1, 3, 0,11, 0.00,60.00,Thursday
16,4853412.213451603
1528,151563513.2433874
1577,0.0
2,3, 1, 3, 0,12, 0.00,60.00,Thursday
16,4350664.333179267
1528,142593364.49153206
1577,0.0
2,3, 1, 3, 0,13, 0.00,60.00,Thursday
16,3237382.5153654446
1528,140439689.39243805
1577,0.0
2,3, 1, 3, 0,14, 0.00,60.00,Thursday
16,5967023.291067578
1528,147197714.7801543
1577,0.0
2,3, 1, 3, 0,15, 0.00,60.00,Thursday
16,3237382.5153654446
1528,149514144.46105722
1577,0.0
2,3, 1, 3, 0,16, 0.00,60.00,Thursday
16,5967276.336793718
1528,164110361.72781897
1577,0.0
2,3, 1, 3, 0,17, 0.00,60.00,Thursday
16,3237382.5153654446
1528,181153377.8432442
1577,0.0
2,3, 1, 3, 0,18, 0.00,60.00,Thursday
16,6170454.420516479
1528,193017926.22620353
1577,0.0
2,3, 1, 3, 0,19, 0.00,60.00,Thursday
16,6170978.705368058
1528,204843710.44118732
1577,0.0
2,3, 1, 3, 0,20, 0.00,60.00,Thursday
16,3237382.5153654446
1528,318831791.2886444
1577,0.0
2,3, 1, 3, 0,21, 0.00,60.00,Thursday
16,6170960.38718217
1528,306448203.6553895
1577,0.0
2,3, 1, 3, 0,22, 0.00,60.00,Thursday
16,6139584.493459484
1528,296452892.9269611
1577,0.0
2,3, 1, 3, 0,23, 0.00,60.00,Thursday
16,6139856.031797232
1528,285111429.01474935
1577,0.0
2,3, 1, 3, 0,24, 0.00,60.00,Thursday
16,3237382.5153654446
1528,274605085.04883534
1577,0.0
2,4, 1, 4, 0, 1, 0.00,60.00,Friday
16,5892044.917506821
1528,310583923.55500185
1577,0.0
2,4, 1, 4, 0, 2, 0.00,60.00,Friday
16,3237382.5153654446
1528,337096617.6145648
1577,0.0
2,4, 1, 4, 0, 3, 0.00,60.00,Friday
16,3237382.5153654446
1528,340775803.20464456
1577,0.0
2,4, 1, 4, 0, 4, 0.00,60.00,Friday
16,4001119.1026317794
1528,345737474.3151858
1577,0.0
2,4, 1, 4, 0, 5, 0.00,60.00,Friday
16,5127863.689444639
1528,350262050.1928583
1577,0.0
2,4, 1, 4, 0, 6, 0.00,60.00,Friday
16,3237382.5153654446
1528,354071534.62162405
1577,0.0
2,4, 1, 4, 0, 7, 0.00,60.00,Friday
16,6140004.658432338
1528,359508318.35249615
1577,0.0
2,4, 1, 4, 0, 8, 0.00,60.00,Friday
16,4515641.641089347
1528,239268182.0028145
1577,0.0
2,4, 1, 4, 0, 9, 0.00,60.00,Friday
16,5401658.273560809
1528,233548086.73552853
1577,0.0
2,4, 1, 4, 0,10, 0.00,60.00,Friday
16,5859841.202626171
1528,226606368.6730277
1577,0.0
2,4, 1, 4, 0,11, 0.00,60.00,Friday
16,5967258.912184204
1528,219314047.50765264
1577,0.0
2,4, 1, 4, 0,12, 0.00,60.00,Friday
16,3237382.5153654446
1528,211929565.22233197
1577,0.0
2,4, 1, 4, 0,13, 0.00,60.00,Friday
16,5966743.0550192585
1528,204542780.1335872
1577,0.0
2,4, 1, 4, 0,14, 0.00,60.00,Friday
16,3237382.5153654446
1528,205598663.12872645
1577,0.0
2,4, 1, 4, 0,15, 0.00,60.00,Friday
16,5966883.419098774
1528,211790977.49146834
1577,0.0
2,4, 1, 4, 0,16, 0.00,60.00,Friday
16,3237382.5153654446
1528,218201492.0594288
1577,0.0
2,4, 1, 4, 0,17, 0.00,60.00,Friday
16,3237382.5153654446
1528,225831268.7796641
1577,0.0
2,4, 1, 4, 0,18, 0.00,60.00,Friday
16,6171004.634210609
1528,232728600.0350623
1577,0.0
2,4, 1, 4, 0,19, 0.00,60.00,Friday
16,6170913.856036351
1528,238818933.45628774
1577,0.0
2,4, 1, 4, 0,20, 0.00,60.00,Friday
16,6170520.856348205
1528,368705335.49070466
1577,0.0
2,4, 1, 4, 0,21, 0.00,60.00,Friday
16,4914891.3876210125
1528,376086801.2670642
1577,0.0
2,4, 1, 4, 0,22, 0.00,60.00,Friday
16,4479352.909137725
1528,379029685.258277
1577,0.0
2,4, 1, 4, 0,23, 0.00,60.00,Friday
16,6140047.787453372
1528,391928796.9975161
1577,0.0
2,4, 1, 4, 0,24, 0.00,60.00,Friday
16,6139359.119804425
1528,399701486.8927436
1577,0.0
2,5, 1, 5, 0, 1, 0.00,60.00,Saturday
16,3237382.5153654446
1528,397749042.71713287
1577,0.0
2,5, 1, 5, 0, 2, 0.00,60.00,Saturday
16,3237382.5153654446
1528,397683269.93470305
1577,0.0
2,5, 1, 5, 0, 3, 0.00,60.00,Saturday
16,3697758.032379839
1528,399320249.47108185
1577,0.0
2,5, 1, 5, 0, 4, 0.00,60.00,Saturday
16,5431372.073519952
1528,401001308.5132737
1577,0.0
2,5, 1, 5, 0, 5, 0.00,60.00,Saturday
16,3237382.5153654446
1528,402716474.012791
1577,0.0
2,5, 1, 5, 0, 6, 0.00,60.00,Saturday
16,3237382.5153654446
1528,404461029.2984607
1577,0.0
2,5, 1, 5, 0, 7, 0.00,60.00,Saturday
16,6139590.81229266
1528,408048419.3166502
1577,0.0
2,5, 1, 5, 0, 8, 0.00,60.00,Saturday
16,6139846.50882076
1528,286307359.3207978
1577,0.0
2,5, 1, 5, 0, 9, 0.00,60.00,Saturday
16,6305924.269413257
1528,279133423.8745833
1577,0.0
2,5, 1, 5, 0,10, 0.00,60.00,Saturday
16,6306586.528967082
1528,271173325.4173522
1577,0.0
2,5, 1, 5, 0,11, 0.00,60.00,Saturday
16,3237382.5153654446
1528,262381118.44574517
1577,0.0
2,5, 1, 5, 0,12, 0.00,60.00,Saturday
16,3388771.608952402
1528,252785816.30747762
1577,0.0
2,5, 1, 5, 0,13, 0.00,60.00,Saturday
16,5815806.976623279
1528,244440037.5994761
1577,0.0
2,5, 1, 5, 0,14, 0.00,60.00,Saturday
16,3237382.5153654446
1528,242904657.1776899
1577,0.0
2,5, 1, 5, 0,15, 0.00,60.00,Saturday
16,5967262.371327028
1528,246299623.59884438
1577,0.0
2,5, 1, 5, 0,16, 0.00,60.00,Saturday
16,3237382.5153654446
1528,249390452.97392502
1577,0.0
2,5, 1, 5, 0,17, 0.00,60.00,Saturday
16,5966760.459530765
1528,251707591.7904421
1577,0.0
2,5, 1, 5, 0,18, 0.00,60.00,Saturday
16,3237382.5153654446
1528,254999444.3158404
1577,0.0
2,5, 1, 5, 0,19, 0.00,60.00,Saturday
16,6171010.796017534
1528,257716257.1216351
1577,0.0
2,5, 1, 5, 0,20, 0.00,60.00,Saturday
16,6170919.972583993
1528,373892689.0416739
1577,0.0
2,5, 1, 5, 0,21, 0.00,60.00,Saturday
16,6170549.392805096
1528,371875859.26162004
1577,0.0
2,5, 1, 5, 0,22, 0.00,60.00,Saturday
16,3844341.684757185
1528,370486245.0200818
1577,0.0
2,5, 1, 5, 0,23, 0.00,60.00,Saturday
16,5532665.609670248
1528,367833280.8482035
1577,0.0
2,5, 1, 5, 0,24, 0.00,60.00,Saturday
16,6139800.706126342
1528,367019939.45868754
1577,0.0
2,6, 1, 6, 0, 1, 0.00,60.00,Sunday
16,3237382.5153654446
1528,366326999.2154102
1577,0.0
2,6, 1, 6, 0, 2, 0.00,60.00,Sunday
16,3237382.5153654446
1528,368292088.2502601
1577,0.0
2,6, 1, 6, 0, 3, 0.00,60.00,Sunday
16,5892042.681647529
1528,370628351.33244956
1577,0.0
2,6, 1, 6, 0, 4, 0.00,60.00,Sunday
16,3237382.5153654446
1528,373497784.45338887
1577,0.0
2,6, 1, 6, 0, 5, 0.00,60.00,Sunday
16,3237382.5153654446
1528,377140816.30386174
1577,0.0
2,6, 1, 6, 0, 6, 0.00,60.00,Sunday
16,5891625.375331177
1528,379576909.7261442
1577,0.0
2,6, 1, 6, 0, 7, 0.00,60.00,Sunday
16,3237382.5153654446
1528,384245616.8118068
1577,0.0
2,6, 1, 6, 0, 8, 0.00,60.00,Sunday
16,6139232.71024943
1528,267569551.1854471
1577,0.0
2,6, 1, 6, 0, 9, 0.00,60.00,Sunday
16,6305794.574790243
1528,266040876.2480409
1577,0.0
2,6, 1, 6, 0,10, 0.00,60.00,Sunday
16,6305873.004079324
1528,264562953.326092
1577,0.0
2,6, 1, 6, 0,11, 0.00,60.00,Sunday
16,3237382.5153654446
1528,262227057.31459954
1577,0.0
2,6, 1, 6, 0,12, 0.00,60.00,Sunday
16,5966957.353184565
1528,258958128.29404065
1577,0.0
2,6, 1, 6, 0,13, 0.00,60.00,Sunday
16,3237382.5153654446
1528,255616650.0481055
1577,0.0
2,6, 1, 6, 0,14, 0.00,60.00,Sunday
16,5967282.586992872
1528,252265696.11697152
1577,0.0
2,6, 1, 6, 0,15, 0.00,60.00,Sunday
16,3237382.5153654446
1528,248862017.71253955
1577,0.0
2,6, 1, 6, 0,16, 0.00,60.00,Sunday
16,5486762.197861012
1528,246670246.89111662
1577,0.0
2,6, 1, 6, 0,17, 0.00,60.00,Sunday
16,3717525.566596632
1528,243970750.65638262
1577,0.0
2,6, 1, 6, 0,18, 0.00,60.00,Sunday
16,6170441.122269208
1528,240481070.8266948
1577,0.0
2,6, 1, 6, 0,19, 0.00,60.00,Sunday
16,4755185.383930748
1528,236959250.6729015
1577,0.0
2,6, 1, 6, 0,20, 0.00,60.00,Sunday
16,4652264.047634318
1528,350920991.0754807
1577,0.0
2,6, 1, 6, 0,21, 0.00,60.00,Sunday
16,6170471.297481998
1528,349403669.8890148
1577,0.0
2,6, 1, 6, 0,22, 0.00,60.00,Sunday
16,6140032.009432574
1528,348447733.0108397
1577,0.0
2,6, 1, 6, 0,23, 0.00,60.00,Sunday
16,4758421.9504597
1528,346327380.7447202
1577,0.0
2,6, 1, 6, 0,24, 0.00,60.00,Sunday
16,4618314.342549552
1528,345947823.542446
1577,0.0
2,7, 1, 7, 0, 1, 0.00,60.00,Monday
16,5892038.103445606
1528,345692669.93192583
1577,0.0
2,7, 1, 7, 0, 2, 0.00,60.00,Monday
16,3237382.5153654446
1528,362853771.81422293
1577,0.0
2,7, 1, 7, 0, 3, 0.00,60.00,Monday
16,3237382.5153654446
1528,391989572.86782765
1577,0.0
2,7, 1, 7, 0, 4, 0.00,60.00,Monday
16,3237382.5153654446
1528,422307860.51376647
1577,0.0
2,7, 1, 7, 0, 5, 0.00,60.00,Monday
16,5891684.465531465
1528,451786105.18849707
1577,0.0
2,7, 1, 7, 0, 6, 0.00,60.00,Monday
16,3237382.5153654446
1528,480865470.6906707
1577,0.0
2,7, 1, 7, 0, 7, 0.00,60.00,Monday
16,6139756.424840598
1528,513942120.39357877
1577,0.0
2,7, 1, 7, 0, 8, 0.00,60.00,Monday
16,3237382.5153654446
1528,393619673.9733538
1577,0.0
2,7, 1, 7, 0, 9, 0.00,60.00,Monday
16,6306337.748964179
1528,375271815.6219908
1577,0.0
2,7, 1, 7, 0,10, 0.00,60.00,Monday
16,6305828.139294466
1528,355912706.9735048
1577,0.0
2,7, 1, 7, 0,11, 0.00,60.00,Monday
16,5966771.09075637
1528,336321641.2822783
1577,0.0
2,7, 1, 7, 0,12, 0.00,60.00,Monday
16,3237382.5153654446
1528,316656606.2476058
1577,0.0
2,7, 1, 7, 0,13, 0.00,60.00,Monday
16,5967306.330015494
1528,297079899.84627175
1577,0.0
2,7, 1, 7, 0,14, 0.00,60.00,Monday
16,3237382.5153654446
1528,286247878.33453
1577,0.0
2,7, 1, 7, 0,15, 0.00,60.00,Monday
16,3237382.5153654446
1528,281939703.7855817
1577,0.0
2,7, 1, 7, 0,16, 0.00,60.00,Monday
16,5967169.210894293
1528,277294829.94800603
1577,0.0
2,7, 1, 7, 0,17, 0.00,60.00,Monday
16,3237382.5153654446
1528,273136729.2275083
1577,0.0
2,7, 1, 7, 0,18, 0.00,60.00,Monday
16,6170576.578536363
1528,268284108.84931836
1577,0.0
2,7, 1, 7, 0,19, 0.00,60.00,Monday
16,6171023.608606863
1528,263855201.18300277
1577,0.0
2,7, 1, 7, 0,20, 0.00,60.00,Monday
16,6170932.794028811
1528,375553073.1196515
1577,0.0
2,7, 1, 7, 0,21, 0.00,60.00,Monday
16,3237382.5153654446
1528,369040246.25048417
1577,0.0
2,7, 1, 7, 0,22, 0.00,60.00,Monday
16,6139623.871114749
1528,362573673.1331573
1577,0.0
2,7, 1, 7, 0,23, 0.00,60.00,Monday
16,6139801.599490512
1528,355422470.40867305
1577,0.0
2,7, 1, 7, 0,24, 0.00,60.00,Monday
16,5692379.086794782
1528,349590591.10846996
1577,0.0
2,8, 1, 8, 0, 1, 0.00,60.00,Tuesday
16,3645701.5027368683
1528,344393078.94456077
1577,0.0
2,8, 1, 8, 0, 2, 0.00,60.00,Tuesday
16,3237382.5153654446
1528,342426772.4593121
1577,0.0
2,8, 1, 8, 0, 3, 0.00,60.00,Tuesday
16,3237382.5153654446
1528,341960645.2670484
1577,0.0
2,8, 1, 8, 0, 4, 0.00,60.00,Tuesday
16,5892081.912956726
1528,342776858.87118226
1577,0.0
2,8, 1, 8, 0, 5, 0.00,60.00,Tuesday
16,3237382.5153654446
1528,343123381.2261747
1577,0.0
2,8, 1, 8, 0, 6, 0.00,60.00,Tuesday
16,3237382.5153654446
1528,342753473.19266033
1577,0.0
2,8, 1, 8, 0, 7, 0.00,60.00,Tuesday
16,6139374.33941948
1528,343936330.5970324
1577,0.0
2,8, 1, 8, 0, 8, 0.00,60.00,Tuesday
16,6140061.891914185
1528,218749275.8381287
1577,0.0
2,8, 1, 8, 0, 9, 0.00,60.00,Tuesday
16,6123624.569338463
1528,208657610.15356943
1577,0.0
2,8, 1, 8, 0,10, 0.00,60.00,Tuesday
16,5402812.559529859
1528,196877492.27269056
1577,0.0
2,8, 1, 8, 0,11, 0.00,60.00,Tuesday
16,4201241.18546217
1528,186488928.40990034
1577,0.0
2,8, 1, 8, 0,12, 0.00,60.00,Tuesday
16,3237382.5153654446
1528,180959327.26897386
1577,0.0
2,8, 1, 8, 0,13, 0.00,60.00,Tuesday
16,5966931.114413787
1528,176291739.39559034
1577,0.0
2,8, 1, 8, 0,14, 0.00,60.00,Tuesday
16,3237382.5153654446
1528,173190756.57652038
1577,0.0
2,8, 1, 8, 0,15, 0.00,60.00,Tuesday
16,5967285.27996796
1528,165532736.52855858
1577,0.0
2,8, 1, 8, 0,16, 0.00,60.00,Tuesday
16,3237382.5153654446
1528,162569338.5695445
1577,0.0
2,8, 1, 8, 0,17, 0.00,60.00,Tuesday
16,5531770.941473806
1528,164525617.28621763
1577,0.0
2,8, 1, 8, 0,18, 0.00,60.00,Tuesday
16,3705680.6481446787
1528,159395174.18906334
1577,0.0
2,8, 1, 8, 0,19, 0.00,60.00,Tuesday
16,6170290.666004754
1528,152385016.30781996
1577,0.0
2,8, 1, 8, 0,20, 0.00,60.00,Tuesday
16,6170384.993804398
1528,259300485.3105047
1577,0.0
2,8, 1, 8, 0,21, 0.00,60.00,Tuesday
16,6170830.232664028
1528,246304479.82576403
1577,0.0
2,8, 1, 8, 0,22, 0.00,60.00,Tuesday
16,3237382.5153654446
1528,231952372.6429331
1577,0.0
2,8, 1, 8, 0,23, 0.00,60.00,Tuesday
16,6139608.174311494
1528,224109508.70390877
1577,0.0
2,8, 1, 8, 0,24, 0.00,60.00,Tuesday
16,6139822.417018333
1528,225204379.4178651
1577,0.0
2,9, 1, 9, 0, 1, 0.00,60.00,Wednesday
16,3237382.5153654446
1528,228528421.19461206
1577,0.0
2,9, 1, 9, 0, 2, 0.00,60.00,Wednesday
16,3237382.5153654446
1528,238991528.75834793
1577,0.0
2,9, 1, 9, 0, 3, 0.00,60.00,Wednesday
16,5891835.162955707
1528,252614040.69150048
1577,0.0
2,9, 1, 9, 0, 4, 0.00,60.00,Wednesday
16,3237382.5153654446
1528,256116758.58196622
1577,0.0
2,9, 1, 9, 0, 5, 0.00,60.00,Wednesday
16,3237382.5153654446
1528,244504936.20307398
1577,0.0
2,9, 1, 9, 0, 6, 0.00,60.00,Wednesday
16,3237382.5153654446
1528,232007978.33374414
1577,0.0
2,9, 1, 9, 0, 7, 0.00,60.00,Wednesday
16,6140020.212739932
1528,228104574.52517346
1577,0.0
2,9, 1, 9, 0, 8, 0.00,60.00,Wednesday
16,6139357.911787042
1528,120736601.78045592
1577,0.0
2,9, 1, 9, 0, 9, 0.00,60.00,Wednesday
16,6306338.148531081
1528,120074285.44607566
1577,0.0
2,9, 1, 9, 0,10, 0.00,60.00,Wednesday
16,6305828.276256319
1528,111031704.01970258
1577,0.0
2,9, 1, 9, 0,11, 0.00,60.00,Wednesday
16,3237382.5153654446
1528,101250321.93678927
1577,0.0
2,9, 1, 9, 0,12, 0.00,60.00,Wednesday
16,5966720.799268769
1528,90615619.51517105
1577,0.0
2,9, 1, 9, 0,13, 0.00,60.00,Wednesday
16,3237382.5153654446
1528,79972828.88149422
1577,0.0
2,9, 1, 9, 0,14, 0.00,60.00,Wednesday
16,3237382.5153654446
1528,78460407.87711114
1577,0.0
2,9, 1, 9, 0,15, 0.00,60.00,Wednesday
16,5967316.924425578
1528,81236273.50041634
1577,0.0
2,9, 1, 9, 0,16, 0.00,60.00,Wednesday
16,3237382.5153654446
1528,84391295.90339255
1577,0.0
2,9, 1, 9, 0,17, 0.00,60.00,Wednesday
16,5967243.282740174
1528,88151554.12344822
1577,0.0
2,9, 1, 9, 0,18, 0.00,60.00,Wednesday
16,5638401.141884811
1528,90762196.98032218
1577,0.0
2,9, 1, 9, 0,19, 0.00,60.00,Wednesday
16,3769491.550914852
1528,93875141.41250306
1577,0.0
2,9, 1, 9, 0,20, 0.00,60.00,Wednesday
16,6170147.133876584
1528,206904884.17925888
1577,0.0
2,9, 1, 9, 0,21, 0.00,60.00,Wednesday
16,6170409.290166824
1528,184073711.6237656
1577,0.0
2,9, 1, 9, 0,22, 0.00,60.00,Wednesday
16,6140013.653416837
1528,164846226.37273502
1577,0.0
2,9, 1, 9, 0,23, 0.00,60.00,Wednesday
16,3237382.5153654446
1528,156544161.9372991
1577,0.0
2,9, 1, 9, 0,24, 0.00,60.00,Wednesday
16,6139363.170019106
1528,153902149.88332567
1577,0.0
2,10, 1,10, 0, 1, 0.00,60.00,Thursday
16,3237382.5153654446
1528,156853617.5050719
1577,0.0
2,10, 1,10, 0, 2, 0.00,60.00,Thursday
16,5892036.674780449
1528,164063528.81709817
1577,0.0
2,10, 1,10, 0, 3, 0.00,60.00,Thursday
16,3237382.5153654446
1528,186425931.6268795
1577,0.0
2,10, 1,10, 0, 4, 0.00,60.00,Thursday
16,3237382.5153654446
1528,197732860.2751219
1577,0.0
2,10, 1,10, 0, 5, 0.00,60.00,Thursday
16,3237382.5153654446
1528,198555792.33428985
1577,0.0
2,10, 1,10, 0, 6, 0.00,60.00,Thursday
16,5891705.022391902
1528,198940244.35604885
1577,0.0
2,10, 1,10, 0, 7, 0.00,60.00,Thursday
16,3465425.8142443122
1528,199544096.53319785
1577,0.0
2,10, 1,10, 0, 8, 0.00,60.00,Thursday
16,5910956.842531489
1528,92633763.01412086
1577,0.0
2,10, 1,10, 0, 9, 0.00,60.00,Thursday
16,6306564.2941581
1528,101869884.74587896
1577,0.0
2,10, 1,10, 0,10, 0.00,60.00,Thursday
16,6306417.596031688
1528,110055883.23172574
1577,0.0
2,10, 1,10, 0,11, 0.00,60.00,Thursday
16,4665007.368027464
1528,96404440.90471023
1577,0.0
2,10, 1,10, 0,12, 0.00,60.00,Thursday
16,4539056.208030666
1528,86737178.34351481
1577,0.0
2,10, 1,10, 0,13, 0.00,60.00,Thursday
16,3237382.5153654446
1528,89385289.44104847
1577,0.0
2,10, 1,10, 0,14, 0.00,60.00,Thursday
16,5967160.073363966
1528,89939924.18904282
1577,0.0
2,10, 1,10, 0,15, 0.00,60.00,Thursday
16,3237382.5153654446
1528,91835160.92174752
1577,0.0
2,10, 1,10, 0,16, 0.00,60.00,Thursday
16,5967265.060040998
1528,96856364.19745255
1577,0.0
2,10, 1,10, 0,17, 0.00,60.00,Thursday
16,3237382.5153654446
1528,102470905.47616702
1577,0.0
2,10, 1,10, 0,18, 0.00,60.00,Thursday
16,6170503.180275966
1528,117110465.916865
1577,0.0
2,10, 1,10, 0,19, 0.00,60.00,Thursday
16,6171039.267468933
1528,122418488.27152312
1577,0.0
2,10, 1,10, 0,20, 0.00,60.00,Thursday
16,3237382.5153654446
1528,234953181.99582702
1577,0.0
2,10, 1,10, 0,21, 0.00,60.00,Thursday
16,6170948.468542453
1528,236300755.86173052
1577,0.0
2,10, 1,10, 0,22, 0.00,60.00,Thursday
16,6139531.334582649
1528,238722890.7263049
1577,0.0
2,10, 1,10, 0,23, 0.00,60.00,Thursday
16,6139943.359085307
1528,240450694.23639464
1577,0.0
2,10, 1,10, 0,24, 0.00,60.00,Thursday
16,3237382.5153654446
1528,230735229.72891513
1577,0.0
2,11, 1,11, 0, 1, 0.00,60.00,Friday
16,5892033.881376231
1528,222782256.036201
1577,0.0
2,11, 1,11, 0, 2, 0.00,60.00,Friday
16,3237382.5153654446
1528,225250606.8746019
1577,0.0
2,11, 1,11, 0, 3, 0.00,60.00,Friday
16,3237382.5153654446
1528,230687105.9760115
1577,0.0
2,11, 1,11, 0, 4, 0.00,60.00,Friday
16,3696842.507331919
1528,236196705.22251683
1577,0.0
2,11, 1,11, 0, 5, 0.00,60.00,Friday
16,5432288.132302637
1528,239445975.04707646
1577,0.0
2,11, 1,11, 0, 6, 0.00,60.00,Friday
16,3237382.5153654446
1528,237848674.24416852
1577,0.0
2,11, 1,11, 0, 7, 0.00,60.00,Friday
16,6139992.798445627
1528,236371465.85848388
1577,0.0
2,11, 1,11, 0, 8, 0.00,60.00,Friday
16,4410588.127371414
1528,123828265.94029006
1577,0.0
2,11, 1,11, 0, 9, 0.00,60.00,Friday
16,5401644.343436014
1528,131741680.79491594
1577,0.0
2,11, 1,11, 0,10, 0.00,60.00,Friday
16,5971018.27204175
1528,132665545.1692173
1577,0.0
2,11, 1,11, 0,11, 0.00,60.00,Friday
16,5967242.39245817
1528,114073099.24831305
1577,0.0
2,11, 1,11, 0,12, 0.00,60.00,Friday
16,3237382.5153654446
1528,113369476.23501264
1577,0.0
2,11, 1,11, 0,13, 0.00,60.00,Friday
16,5966689.56377142
1528,114663630.1765949
1577,0.0
2,11, 1,11, 0,14, 0.00,60.00,Friday
16,3237382.5153654446
1528,115762521.07030454
1577,0.0
2,11, 1,11, 0,15, 0.00,60.00,Friday
16,5967049.096127849
1528,109150244.45483962
1577,0.0
2,11, 1,11, 0,16, 0.00,60.00,Friday
16,3237382.5153654446
1528,121333072.98785745
1577,0.0
2,11, 1,11, 0,17, 0.00,60.00,Friday
16,3237382.5153654446
1528,135609363.6781099
1577,0.0
2,11, 1,11, 0,18, 0.00,60.00,Friday
16,6170987.211630467
1528,133422341.34408636
1577,0.0
2,11, 1,11, 0,19, 0.00,60.00,Friday
16,6170896.420022047
1528,133229957.86183651
1577,0.0
2,11, 1,11, 0,20, 0.00,60.00,Friday
16,6170448.869861878
1528,247303640.96493298
1577,0.0
2,11, 1,11, 0,21, 0.00,60.00,Friday
16,4772238.251108825
1528,241675910.1367886
1577,0.0
2,11, 1,11, 0,22, 0.00,60.00,Friday
16,4620492.88305843
1528,239688353.02927178
1577,0.0
2,11, 1,11, 0,23, 0.00,60.00,Friday
16,6140031.875707276
1528,249171834.92270812
1577,0.0
2,11, 1,11, 0,24, 0.00,60.00,Friday
16,6139353.780599974
1528,244479873.19968116
1577,0.0
2,12, 1,12, 0, 1, 0.00,60.00,Saturday
16,3237382.5153654446
1528,235471169.67695096
1577,0.0
2,12, 1,12, 0, 2, 0.00,60.00,Saturday
16,3237382.5153654446
1528,231551727.39945295
1577,0.0
2,12, 1,12, 0, 3, 0.00,60.00,Saturday
16,3290616.698788357
1528,227743793.9647409
1577,0.0
2,12, 1,12, 0, 4, 0.00,60.00,Saturday
16,5838805.09521815
1528,221649983.55368766
1577,0.0
2,12, 1,12, 0, 5, 0.00,60.00,Saturday
16,3237382.5153654446
1528,215344723.77015048
1577,0.0
2,12, 1,12, 0, 6, 0.00,60.00,Saturday
16,3237382.5153654446
1528,213247915.0888887
1577,0.0
2,12, 1,12, 0, 7, 0.00,60.00,Saturday
16,6139674.161071765
1528,214226106.85846484
1577,0.0
2,12, 1,12, 0, 8, 0.00,60.00,Saturday
16,6139741.866286131
1528,99403431.84815903
1577,0.0
2,12, 1,12, 0, 9, 0.00,60.00,Saturday
16,6305973.180206263
1528,102409275.97484271
1577,0.0
2,12, 1,12, 0,10, 0.00,60.00,Saturday
16,6306581.48427049
1528,104706864.66618666
1577,0.0
2,12, 1,12, 0,11, 0.00,60.00,Saturday
16,3237382.5153654446
1528,116795754.75114857
1577,0.0
2,12, 1,12, 0,12, 0.00,60.00,Saturday
16,3237382.5153654446
1528,120705902.39769427
1577,0.0
2,12, 1,12, 0,13, 0.00,60.00,Saturday
16,5967320.948212429
1528,114407002.7059277
1577,0.0
2,12, 1,12, 0,14, 0.00,60.00,Saturday
16,3237382.5153654446
1528,117834355.71995401
1577,0.0
2,12, 1,12, 0,15, 0.00,60.00,Saturday
16,5967247.309601778
1528,111376158.98492964
1577,0.0
2,12, 1,12, 0,16, 0.00,60.00,Saturday
16,3237382.5153654446
1528,109213041.56890514
1577,0.0
2,12, 1,12, 0,17, 0.00,60.00,Saturday
16,5966700.356834615
1528,115394888.00156668
1577,0.0
2,12, 1,12, 0,18, 0.00,60.00,Saturday
16,3237382.5153654446
1528,124868161.08526826
1577,0.0
2,12, 1,12, 0,19, 0.00,60.00,Saturday
16,6170994.8645282155
1528,130568026.18535534
1577,0.0
2,12, 1,12, 0,20, 0.00,60.00,Saturday
16,6170904.026168607
1528,244382895.57442302
1577,0.0
2,12, 1,12, 0,21, 0.00,60.00,Saturday
16,6170478.901714878
1528,242843003.59755653
1577,0.0
2,12, 1,12, 0,22, 0.00,60.00,Saturday
16,3704239.64175429
1528,242645139.20423454
1577,0.0
2,12, 1,12, 0,23, 0.00,60.00,Saturday
16,5672856.167998979
1528,248155753.42887524
1577,0.0
2,12, 1,12, 0,24, 0.00,60.00,Saturday
16,6139701.511554955
1528,256872359.6671405
1577,0.0
2,13, 1,13, 0, 1, 0.00,60.00,Sunday
16,3237382.5153654446
1528,261919600.2276269
1577,0.0
2,13, 1,13, 0, 2, 0.00,60.00,Sunday
16,3237382.5153654446
1528,263114246.83242643
1577,0.0
2,13, 1,13, 0, 3, 0.00,60.00,Sunday
16,5892015.1742108455
1528,258059826.34872216
1577,0.0
2,13, 1,13, 0, 4, 0.00,60.00,Sunday
16,3237382.5153654446
1528,260964253.14363676
1577,0.0
2,13, 1,13, 0, 5, 0.00,60.00,Sunday
16,3237382.5153654446
1528,267995707.80009684
1577,0.0
2,13, 1,13, 0, 6, 0.00,60.00,Sunday
16,5891851.753848061
1528,273625076.8640175
1577,0.0
2,13, 1,13, 0, 7, 0.00,60.00,Sunday
16,3237382.5153654446
1528,273269322.32887375
1577,0.0
2,13, 1,13, 0, 8, 0.00,60.00,Sunday
16,6139278.786709369
1528,152284124.19598332
1577,0.0
2,13, 1,13, 0, 9, 0.00,60.00,Sunday
16,6305777.86611254
1528,157060186.2144541
1577,0.0
2,13, 1,13, 0,10, 0.00,60.00,Sunday
16,6305913.989576137
1528,153796808.611729
1577,0.0
2,13, 1,13, 0,11, 0.00,60.00,Sunday
16,3237382.5153654446
1528,123118100.8926983
1577,0.0
2,13, 1,13, 0,12, 0.00,60.00,Sunday
16,5967129.133349828
1528,101638491.52233358
1577,0.0
2,13, 1,13, 0,13, 0.00,60.00,Sunday
16,3237382.5153654446
1528,106712669.98909736
1577,0.0
2,13, 1,13, 0,14, 0.00,60.00,Sunday
16,5967267.45288387
1528,112000537.79107364
1577,0.0
2,13, 1,13, 0,15, 0.00,60.00,Sunday
16,3237382.5153654446
1528,113558253.43680628
1577,0.0
2,13, 1,13, 0,16, 0.00,60.00,Sunday
16,5233873.59144279
1528,114624289.315088
1577,0.0
2,13, 1,13, 0,17, 0.00,60.00,Sunday
16,3970298.8625383857
1528,114897545.17778516
1577,0.0
2,13, 1,13, 0,18, 0.00,60.00,Sunday
16,6170387.62042645
1528,116258215.43468413
1577,0.0
2,13, 1,13, 0,19, 0.00,60.00,Sunday
16,4623923.5661825305
1528,117117192.45551711
1577,0.0
2,13, 1,13, 0,20, 0.00,60.00,Sunday
16,4783477.937087971
1528,231363719.77492306
1577,0.0
2,13, 1,13, 0,21, 0.00,60.00,Sunday
16,6170541.152308971
1528,227927395.5793872
1577,0.0
2,13, 1,13, 0,22, 0.00,60.00,Sunday
16,6140016.124398222
1528,226034811.33844882
1577,0.0
2,13, 1,13, 0,23, 0.00,60.00,Sunday
16,4617622.726762004
1528,224230448.4229199
1577,0.0
2,13, 1,13, 0,24, 0.00,60.00,Sunday
16,4759120.715541591
1528,222424435.31984583
1577,0.0
2,14, 1,14, 0, 1, 0.00,60.00,Monday
16,5746566.035885783
1528,221211265.41340804
1577,0.0
2,14, 1,14, 0, 2, 0.00,60.00,Monday
16,3382729.771358052
1528,219607268.25833976
1577,0.0
2,14, 1,14, 0, 3, 0.00,60.00,Monday
16,3237382.5153654446
1528,217359312.0298336
1577,0.0
2,14, 1,14, 0, 4, 0.00,60.00,Monday
16,3237382.5153654446
1528,216330539.6933236
1577,0.0
2,14, 1,14, 0, 5, 0.00,60.00,Monday
16,5891946.583744692
1528,214861869.79005545
1577,0.0
2,14, 1,14, 0, 6, 0.00,60.00,Monday
16,3237382.5153654446
1528,212712442.7612368
1577,0.0
2,14, 1,14, 0, 7, 0.00,60.00,Monday
16,6139863.972013744
1528,211521558.68198326
1577,0.0
2,14, 1,14, 0, 8, 0.00,60.00,Monday
16,3237382.5153654446
1528,94930521.07608303
1577,0.0
2,14, 1,14, 0, 9, 0.00,60.00,Monday
16,6306254.483037834
1528,93180253.72625959
1577,0.0
2,14, 1,14, 0,10, 0.00,60.00,Monday
16,6305802.407157516
1528,90581818.52347858
1577,0.0
2,14, 1,14, 0,11, 0.00,60.00,Monday
16,5966878.760935506
1528,87615272.89563581
1577,0.0