Program Version,EnergyPlus, Version 23.2.0-7636e6b3e9, YMD=2025.01.28 12:57
1,5,Environment Title[],Latitude[deg],Longitude[deg],Time Zone[],Elevation[m]
2,8,Day of Simulation[],Month[],Day of Month[],DST Indicator[1=yes 0=no],Hour[],StartMinute[],EndMinute[],DayType
3,5,Cumulative Day of Simulation[],Month[],Day of Month[],DST Indicator[1=yes 0=no],DayType  ! When Daily Meters Requested
4,2,Cumulative Days of Simulation[],Month[]  ! When Monthly Meters Requested
5,1,Cumulative Days of Simulation[] ! When Run Period Meters Requested
6,1,Calendar Year of Simulation[] ! When Annual Meters Requested
1528,1,Heating:EnergyTransfer [J] !Hourly
1577,1,Cooling:EnergyTransfer [J] !Hourly
16,1,Electricity:Facility [J] !Hourly
End of Data Dictionary
1,RUN PERIOD 1,  52.46,   5.52,   1.00,  -3.90
2,1, 1, 1, 0, 1, 0.00,60.00,Tuesday
16,3307854.1251308587
1528,197285264.43897453
1577,0.0
2,1, 1, 1, 0, 2, 0.00,60.00,Tuesday
16,3307854.1251308587
1528,189478798.80502728
1577,0.0
2,1, 1, 1, 0, 3, 0.00,60.00,Tuesday
16,3307854.1251308587
1528,192473379.34035647
1577,0.0
2,1, 1, 1, 0, 4, 0.00,60.00,Tuesday
16,5962312.361193469
1528,195049343.27714777
1577,0.0
2,1, 1, 1, 0, 5, 0.00,60.00,Tuesday
16,3307854.1251308587
1528,196962763.5186007
1577,0.0
2,1, 1, 1, 0, 6, 0.00,60.00,Tuesday
16,3307854.1251308587
1528,200029501.23198196
1577,0.0
2,1, 1, 1, 0, 7, 0.00,60.00,Tuesday
16,6209875.057388863
1528,203575686.79306132
1577,0.0
2,1, 1, 1, 0, 8, 0.00,60.00,Tuesday
16,6210549.39746206
1528,118887106.5333226
1577,0.0
2,1, 1, 1, 0, 9, 0.00,60.00,Tuesday
16,6296341.963297431
1528,128535632.00584425
1577,0.0
2,1, 1, 1, 0,10, 0.00,60.00,Tuesday
16,5473424.52982207
1528,128503509.7993078
1577,0.0
2,1, 1, 1, 0,11, 0.00,60.00,Tuesday
16,4180824.879723852
1528,132295214.53226784
1577,0.0
2,1, 1, 1, 0,12, 0.00,60.00,Tuesday
16,3307854.1251308587
1528,139861229.57762715
1577,0.0
2,1, 1, 1, 0,13, 0.00,60.00,Tuesday
16,6037353.715242162
1528,143663556.57696378
1577,0.0
2,1, 1, 1, 0,14, 0.00,60.00,Tuesday
16,3307854.1251308587
1528,147137252.72319135
1577,0.0
2,1, 1, 1, 0,15, 0.00,60.00,Tuesday
16,6037762.329066383
1528,148874586.29106605
1577,0.0
2,1, 1, 1, 0,16, 0.00,60.00,Tuesday
16,3307854.1251308587
1528,152678173.35307783
1577,0.0
2,1, 1, 1, 0,17, 0.00,60.00,Tuesday
16,5693161.047084433
1528,150554209.25063744
1577,0.0
2,1, 1, 1, 0,18, 0.00,60.00,Tuesday
16,3678389.203247377
1528,144658757.8655175
1577,0.0
2,1, 1, 1, 0,19, 0.00,60.00,Tuesday
16,6240775.940047878
1528,138270917.30359745
1577,0.0
2,1, 1, 1, 0,20, 0.00,60.00,Tuesday
16,6240824.149596679
1528,219358544.65810052
1577,0.0
2,1, 1, 1, 0,21, 0.00,60.00,Tuesday
16,6241223.096844818
1528,207875197.81735063
1577,0.0
2,1, 1, 1, 0,22, 0.00,60.00,Tuesday
16,3307854.1251308587
1528,202390328.421134
1577,0.0
2,1, 1, 1, 0,23, 0.00,60.00,Tuesday
16,6210143.012422817
1528,207555229.00516304
1577,0.0
2,1, 1, 1, 0,24, 0.00,60.00,Tuesday
16,6210216.230562722
1528,213559214.80723014
1577,0.0
2,2, 1, 2, 0, 1, 0.00,60.00,Wednesday
16,3307854.1251308587
1528,216545252.4461945
1577,0.0
2,2, 1, 2, 0, 2, 0.00,60.00,Wednesday
16,3307854.1251308587
1528,211943655.1988942
1577,0.0
2,2, 1, 2, 0, 3, 0.00,60.00,Wednesday
16,5962131.609240568
1528,210769194.61776474
1577,0.0
2,2, 1, 2, 0, 4, 0.00,60.00,Wednesday
16,3307854.1251308587
1528,215610885.2905534
1577,0.0
2,2, 1, 2, 0, 5, 0.00,60.00,Wednesday
16,3307854.1251308587
1528,207358425.4622211
1577,0.0
2,2, 1, 2, 0, 6, 0.00,60.00,Wednesday
16,3307854.1251308587
1528,201190828.6853271
1577,0.0
2,2, 1, 2, 0, 7, 0.00,60.00,Wednesday
16,6210503.630013766
1528,197541841.00499582
1577,0.0
2,2, 1, 2, 0, 8, 0.00,60.00,Wednesday
16,6209825.384426391
1528,99849392.46518439
1577,0.0
2,2, 1, 2, 0, 9, 0.00,60.00,Wednesday
16,6376875.670657251
1528,97900540.5893949
1577,0.0
2,2, 1, 2, 0,10, 0.00,60.00,Wednesday
16,6376323.19583835
1528,100034435.50536641
1577,0.0
2,2, 1, 2, 0,11, 0.00,60.00,Wednesday
16,3307854.1251308587
1528,102497376.61396411
1577,0.0
2,2, 1, 2, 0,12, 0.00,60.00,Wednesday
16,6037161.208924383
1528,112744419.842871
1577,0.0
2,2, 1, 2, 0,13, 0.00,60.00,Wednesday
16,3307854.1251308587
1528,116363393.78319776
1577,0.0
2,2, 1, 2, 0,14, 0.00,60.00,Wednesday
16,3328229.097467125
1528,117692780.15887958
1577,0.0
2,2, 1, 2, 0,15, 0.00,60.00,Wednesday
16,6017405.106558549
1528,105808301.24404249
1577,0.0
2,2, 1, 2, 0,16, 0.00,60.00,Wednesday
16,3307854.1251308587
1528,101646344.10645816
1577,0.0
2,2, 1, 2, 0,17, 0.00,60.00,Wednesday
16,6037726.141162105
1528,106622367.12066509
1577,0.0
2,2, 1, 2, 0,18, 0.00,60.00,Wednesday
16,5806351.260195701
1528,113035887.30091433
1577,0.0
2,2, 1, 2, 0,19, 0.00,60.00,Wednesday
16,3742540.0378009654
1528,128877810.65528114
1577,0.0
2,2, 1, 2, 0,20, 0.00,60.00,Wednesday
16,6240607.824223821
1528,222366812.48452413
1577,0.0
2,2, 1, 2, 0,21, 0.00,60.00,Wednesday
16,6240844.609229685
1528,214529516.03230554
1577,0.0
2,2, 1, 2, 0,22, 0.00,60.00,Wednesday
16,6210497.084445771
1528,210556483.93705827
1577,0.0
2,2, 1, 2, 0,23, 0.00,60.00,Wednesday
16,3307854.1251308587
1528,214128499.5885109
1577,0.0
2,2, 1, 2, 0,24, 0.00,60.00,Wednesday
16,6209826.802927531
1528,220220944.9809164
1577,0.0
2,3, 1, 3, 0, 1, 0.00,60.00,Thursday
16,3307854.1251308587
1528,231288185.79597342
1577,0.0
2,3, 1, 3, 0, 2, 0.00,60.00,Thursday
16,5962519.279119248
1528,238164855.87440258
1577,0.0
2,3, 1, 3, 0, 3, 0.00,60.00,Thursday
16,3307854.1251308587
1528,238846212.3011734
1577,0.0
2,3, 1, 3, 0, 4, 0.00,60.00,Thursday
16,3307854.1251308587
1528,244796038.11860073
1577,0.0
2,3, 1, 3, 0, 5, 0.00,60.00,Thursday
16,3307854.1251308587
1528,244830211.16726303
1577,0.0
2,3, 1, 3, 0, 6, 0.00,60.00,Thursday
16,5962044.382871569
1528,248704542.81966126
1577,0.0
2,3, 1, 3, 0, 7, 0.00,60.00,Thursday
16,3640996.7884537876
1528,255907492.08806348
1577,0.0
2,3, 1, 3, 0, 8, 0.00,60.00,Thursday
16,5876335.173899345
1528,166495801.82257873
1577,0.0
2,3, 1, 3, 0, 9, 0.00,60.00,Thursday
16,6377048.23372703
1528,172787942.27963233
1577,0.0
2,3, 1, 3, 0,10, 0.00,60.00,Thursday
16,6376901.556583226
1528,168538552.14801484
1577,0.0
2,3, 1, 3, 0,11, 0.00,60.00,Thursday
16,4923854.2555383295
1528,152872266.3360291
1577,0.0
2,3, 1, 3, 0,12, 0.00,60.00,Thursday
16,4421165.50679321
1528,143777513.8734898
1577,0.0
2,3, 1, 3, 0,13, 0.00,60.00,Thursday
16,3307854.1251308587
1528,141527239.90165925
1577,0.0
2,3, 1, 3, 0,14, 0.00,60.00,Thursday
16,6037494.920498178
1528,148208920.26958114
1577,0.0
2,3, 1, 3, 0,15, 0.00,60.00,Thursday
16,3307854.1251308587
1528,150460268.59568462
1577,0.0
2,3, 1, 3, 0,16, 0.00,60.00,Thursday
16,6037747.944789639
1528,164999806.08259064
1577,0.0
2,3, 1, 3, 0,17, 0.00,60.00,Thursday
16,3307854.1251308587
1528,181993395.89192337
1577,0.0
2,3, 1, 3, 0,18, 0.00,60.00,Thursday
16,6240926.037459423
1528,193815356.0645888
1577,0.0
2,3, 1, 3, 0,19, 0.00,60.00,Thursday
16,6241450.329561057
1528,205604614.98098987
1577,0.0
2,3, 1, 3, 0,20, 0.00,60.00,Thursday
16,3307854.1251308587
1528,297989742.3893935
1577,0.0
2,3, 1, 3, 0,21, 0.00,60.00,Thursday
16,6241431.995739988
1528,286207720.637889
1577,0.0
2,3, 1, 3, 0,22, 0.00,60.00,Thursday
16,6210056.097486349
1528,276555144.13782907
1577,0.0
2,3, 1, 3, 0,23, 0.00,60.00,Thursday
16,6210327.650056975
1528,265540118.18012658
1577,0.0
2,3, 1, 3, 0,24, 0.00,60.00,Thursday
16,3307854.1251308587
1528,255230336.20913696
1577,0.0
2,4, 1, 4, 0, 1, 0.00,60.00,Friday
16,5962516.526154027
1528,291121602.4982715
1577,0.0
2,4, 1, 4, 0, 2, 0.00,60.00,Friday
16,3307854.1251308587
1528,317581087.8999833
1577,0.0
2,4, 1, 4, 0, 3, 0.00,60.00,Friday
16,3307854.1251308587
1528,321319189.8472405
1577,0.0
2,4, 1, 4, 0, 4, 0.00,60.00,Friday
16,4071559.877802464
1528,326325001.3153305
1577,0.0
2,4, 1, 4, 0, 5, 0.00,60.00,Friday
16,5198366.145740638
1528,330887057.3439764
1577,0.0
2,4, 1, 4, 0, 6, 0.00,60.00,Friday
16,3307854.1251308587
1528,334730178.08774805
1577,0.0
2,4, 1, 4, 0, 7, 0.00,60.00,Friday
16,6210476.266996096
1528,340114002.12396157
1577,0.0
2,4, 1, 4, 0, 8, 0.00,60.00,Friday
16,4586109.60824975
1528,241817565.22263747
1577,0.0
2,4, 1, 4, 0, 9, 0.00,60.00,Friday
16,5472129.882680244
1528,235345629.8451179
1577,0.0
2,4, 1, 4, 0,10, 0.00,60.00,Friday
16,5930316.667416429
1528,228135783.7699264
1577,0.0
2,4, 1, 4, 0,11, 0.00,60.00,Friday
16,6037730.521376868
1528,220670617.31392664
1577,0.0
2,4, 1, 4, 0,12, 0.00,60.00,Friday
16,3307854.1251308587
1528,213160318.60243633
1577,0.0
2,4, 1, 4, 0,13, 0.00,60.00,Friday
16,6037214.654459393
1528,205676060.94491148
1577,0.0
2,4, 1, 4, 0,14, 0.00,60.00,Friday
16,3307854.1251308587
1528,206651641.13820228
1577,0.0
2,4, 1, 4, 0,15, 0.00,60.00,Friday
16,6037355.033746285
1528,212777398.96651414
1577,0.0
2,4, 1, 4, 0,16, 0.00,60.00,Friday
16,3307854.1251308587
1528,219129334.4768532
1577,0.0
2,4, 1, 4, 0,17, 0.00,60.00,Friday
16,3307854.1251308587
1528,226706662.52892068
1577,0.0
2,4, 1, 4, 0,18, 0.00,60.00,Friday
16,6241476.2433731975
1528,233559785.1234493
1577,0.0
2,4, 1, 4, 0,19, 0.00,60.00,Friday
16,6241385.46519849
1528,239611780.7671721
1577,0.0
2,4, 1, 4, 0,20, 0.00,60.00,Friday
16,6240992.4668491855
1528,347720985.2782983
1577,0.0
2,4, 1, 4, 0,21, 0.00,60.00,Friday
16,4985364.336081767
1528,355592516.80028653
1577,0.0
2,4, 1, 4, 0,22, 0.00,60.00,Friday
16,4549823.194355998
1528,358809413.5984185
1577,0.0
2,4, 1, 4, 0,23, 0.00,60.00,Friday
16,6210519.397368063
1528,371929541.84473044
1577,0.0
2,4, 1, 4, 0,24, 0.00,60.00,Friday
16,6209830.729679339
1528,379814205.25062
1577,0.0
2,5, 1, 5, 0, 1, 0.00,60.00,Saturday
16,3307854.1251308587
1528,377986906.91410226
1577,0.0
2,5, 1, 5, 0, 2, 0.00,60.00,Saturday
16,3307854.1251308587
1528,378014934.7083371
1577,0.0
2,5, 1, 5, 0, 3, 0.00,60.00,Saturday
16,3768233.4633624316
1528,379721095.6870157
1577,0.0
2,5, 1, 5, 0, 4, 0.00,60.00,Saturday
16,5501839.859835894
1528,381460646.6229283
1577,0.0
2,5, 1, 5, 0, 5, 0.00,60.00,Saturday
16,3307854.1251308587
1528,383226192.85152745
1577,0.0
2,5, 1, 5, 0, 6, 0.00,60.00,Saturday
16,3307854.1251308587
1528,385014934.6016459
1577,0.0
2,5, 1, 5, 0, 7, 0.00,60.00,Saturday
16,6210062.42133453
1528,388559460.11132675
1577,0.0
2,5, 1, 5, 0, 8, 0.00,60.00,Saturday
16,6210318.12352372
1528,288838406.2810212
1577,0.0
2,5, 1, 5, 0, 9, 0.00,60.00,Saturday
16,6376395.877145448
1528,280959250.3144099
1577,0.0
2,5, 1, 5, 0,10, 0.00,60.00,Saturday
16,6377058.134118283
1528,272730356.4642803
1577,0.0
2,5, 1, 5, 0,11, 0.00,60.00,Saturday
16,3307854.1251308587
1528,263764326.93206406
1577,0.0
2,5, 1, 5, 0,12, 0.00,60.00,Saturday
16,3459254.4470415777
1528,254041424.20292646
1577,0.0
2,5, 1, 5, 0,13, 0.00,60.00,Saturday
16,5886267.348907439
1528,245596381.59196034
1577,0.0
2,5, 1, 5, 0,14, 0.00,60.00,Saturday
16,3307854.1251308587
1528,243982730.1561125
1577,0.0
2,5, 1, 5, 0,15, 0.00,60.00,Saturday
16,6037733.981764294
1528,247312144.8000772
1577,0.0
2,5, 1, 5, 0,16, 0.00,60.00,Saturday
16,3307854.1251308587
1528,250343907.4852593
1577,0.0
2,5, 1, 5, 0,17, 0.00,60.00,Saturday
16,6037232.0728868395
1528,252607454.19205344
1577,0.0
2,5, 1, 5, 0,18, 0.00,60.00,Saturday
16,3307854.1251308587
1528,255853088.17901805
1577,0.0
2,5, 1, 5, 0,19, 0.00,60.00,Saturday
16,6241482.406493706
1528,258530084.29791483
1577,0.0
2,5, 1, 5, 0,20, 0.00,60.00,Saturday
16,6241391.583817143
1528,353096810.81335443
1577,0.0
2,5, 1, 5, 0,21, 0.00,60.00,Saturday
16,6241021.009553172
1528,351610585.70343703
1577,0.0
2,5, 1, 5, 0,22, 0.00,60.00,Saturday
16,3914826.192071948
1528,350522785.4231835
1577,0.0
2,5, 1, 5, 0,23, 0.00,60.00,Saturday
16,5603124.314313265
1528,348153665.3265522
1577,0.0
2,5, 1, 5, 0,24, 0.00,60.00,Saturday
16,6210272.325595775
1528,347492039.6992183
1577,0.0
2,6, 1, 6, 0, 1, 0.00,60.00,Sunday
16,3307854.1251308587
1528,346920591.6815642
1577,0.0
2,6, 1, 6, 0, 2, 0.00,60.00,Sunday
16,3307854.1251308587
1528,348968529.99404085
1577,0.0
2,6, 1, 6, 0, 3, 0.00,60.00,Sunday
16,5962514.292766416
1528,351370627.52334595
1577,0.0
2,6, 1, 6, 0, 4, 0.00,60.00,Sunday
16,3307854.1251308587
1528,354293656.7196058
1577,0.0
2,6, 1, 6, 0, 5, 0.00,60.00,Sunday
16,3307854.1251308587
1528,357979956.6887366
1577,0.0
2,6, 1, 6, 0, 6, 0.00,60.00,Sunday
16,5962096.969156705
1528,360457616.5512718
1577,0.0
2,6, 1, 6, 0, 7, 0.00,60.00,Sunday
16,3307854.1251308587
1528,365080349.867954
1577,0.0
2,6, 1, 6, 0, 8, 0.00,60.00,Sunday
16,6209712.794089549
1528,270116222.4767934
1577,0.0
2,6, 1, 6, 0, 9, 0.00,60.00,Sunday
16,6376266.185576019
1528,267890355.7098292
1577,0.0
2,6, 1, 6, 0,10, 0.00,60.00,Sunday
16,6376344.611464684
1528,266138069.03195047
1577,0.0
2,6, 1, 6, 0,11, 0.00,60.00,Sunday
16,3307854.1251308587
1528,263624437.5609179
1577,0.0
2,6, 1, 6, 0,12, 0.00,60.00,Sunday
16,6037428.955221862
1528,260226236.87417445
1577,0.0
2,6, 1, 6, 0,13, 0.00,60.00,Sunday
16,3307854.1251308587
1528,256784400.8168664
1577,0.0
2,6, 1, 6, 0,14, 0.00,60.00,Sunday
16,6037754.197532143
1528,253351442.62637624
1577,0.0
2,6, 1, 6, 0,15, 0.00,60.00,Sunday
16,3307854.1251308587
1528,249880143.33116612
1577,0.0
2,6, 1, 6, 0,16, 0.00,60.00,Sunday
16,5557246.741185241
1528,247631035.50490743
1577,0.0
2,6, 1, 6, 0,17, 0.00,60.00,Sunday
16,3787984.24975321
1528,244882175.4435758
1577,0.0
2,6, 1, 6, 0,18, 0.00,60.00,Sunday
16,6240912.735048668
1528,241349561.108445
1577,0.0
2,6, 1, 6, 0,19, 0.00,60.00,Sunday
16,4825663.7068714965
1528,237789261.10853043
1577,0.0
2,6, 1, 6, 0,20, 0.00,60.00,Sunday
16,4722739.356963212
1528,330190710.36730564
1577,0.0
2,6, 1, 6, 0,21, 0.00,60.00,Sunday
16,6240942.908277815
1528,329185793.61513954
1577,0.0
2,6, 1, 6, 0,22, 0.00,60.00,Sunday
16,6210503.618553268
1528,328508970.0309278
1577,0.0
2,6, 1, 6, 0,23, 0.00,60.00,Sunday
16,4828891.308196066
1528,326648966.5159569
1577,0.0
2,6, 1, 6, 0,24, 0.00,60.00,Sunday
16,4688788.204122603
1528,326397539.95457494
1577,0.0
2,7, 1, 7, 0, 1, 0.00,60.00,Monday
16,5962509.71297426
1528,326241388.73279285
1577,0.0
2,7, 1, 7, 0, 2, 0.00,60.00,Monday
16,3307854.1251308587
1528,343415195.1524983
1577,0.0
2,7, 1, 7, 0, 3, 0.00,60.00,Monday
16,3307854.1251308587
1528,372508478.8170257
1577,0.0
2,7, 1, 7, 0, 4, 0.00,60.00,Monday
16,3307854.1251308587
1528,402769808.3397508
1577,0.0
2,7, 1, 7, 0, 5, 0.00,60.00,Monday
16,5962156.078620304
1528,432185955.6281843
1577,0.0
2,7, 1, 7, 0, 6, 0.00,60.00,Monday
16,3307854.1251308587
1528,461198683.73349947
1577,0.0
2,7, 1, 7, 0, 7, 0.00,60.00,Monday
16,6210228.03622303
1528,494114224.50680023
1577,0.0
2,7, 1, 7, 0, 8, 0.00,60.00,Monday
16,3307854.1251308587
1528,396176853.5352825
1577,0.0
2,7, 1, 7, 0, 9, 0.00,60.00,Monday
16,6376809.3609673185
1528,377143319.7342338
1577,0.0
2,7, 1, 7, 0,10, 0.00,60.00,Monday
16,6376299.749810167
1528,357512487.75990033
1577,0.0
2,7, 1, 7, 0,11, 0.00,60.00,Monday
16,6037242.698277308
1528,337745497.2790923
1577,0.0
2,7, 1, 7, 0,12, 0.00,60.00,Monday
16,3307854.1251308587
1528,317952749.7204924
1577,0.0
2,7, 1, 7, 0,13, 0.00,60.00,Monday
16,6037777.940174455
1528,298276636.8045505
1577,0.0
2,7, 1, 7, 0,14, 0.00,60.00,Monday
16,3307854.1251308587
1528,287364116.3464006
1577,0.0
2,7, 1, 7, 0,15, 0.00,60.00,Monday
16,3307854.1251308587
1528,282988112.4267489
1577,0.0
2,7, 1, 7, 0,16, 0.00,60.00,Monday
16,6037640.825876226
1528,278281647.4349138
1577,0.0
2,7, 1, 7, 0,17, 0.00,60.00,Monday
16,3307854.1251308587
1528,274067492.0658351
1577,0.0
2,7, 1, 7, 0,18, 0.00,60.00,Monday
16,6241048.1862153895
1528,269168205.3724552
1577,0.0
2,7, 1, 7, 0,19, 0.00,60.00,Monday
16,6241495.218787944
1528,264699634.67782587
1577,0.0
2,7, 1, 7, 0,20, 0.00,60.00,Monday
16,6241404.404982318
1528,354524069.5163182
1577,0.0
2,7, 1, 7, 0,21, 0.00,60.00,Monday
16,3307854.1251308587
1528,348569779.8700433
1577,0.0
2,7, 1, 7, 0,22, 0.00,60.00,Monday
16,6210095.486985209
1528,342411346.1552063
1577,0.0
2,7, 1, 7, 0,23, 0.00,60.00,Monday
16,6210273.201369319
1528,335550118.6603408
1577,0.0
2,7, 1, 7, 0,24, 0.00,60.00,Monday
16,5762861.14660147
1528,329876695.8604128
1577,0.0
2,8, 1, 8, 0, 1, 0.00,60.00,Tuesday
16,3716163.5745404633
1528,324805718.0019241
1577,0.0
2,8, 1, 8, 0, 2, 0.00,60.00,Tuesday
16,3307854.1251308587
1528,322934120.44680226
1577,0.0
2,8, 1, 8, 0, 3, 0.00,60.00,Tuesday
16,3307854.1251308587
1528,322546966.94303083
1577,0.0
2,8, 1, 8, 0, 4, 0.00,60.00,Tuesday
16,5962553.523067828
1528,323427354.9494396
1577,0.0
2,8, 1, 8, 0, 5, 0.00,60.00,Tuesday
16,3307854.1251308587
1528,323831812.23957
1577,0.0
2,8, 1, 8, 0, 6, 0.00,60.00,Tuesday
16,3307854.1251308587
1528,323516579.0310153
1577,0.0
2,8, 1, 8, 0, 7, 0.00,60.00,Tuesday
16,6209845.949717107
1528,324667859.3478732
1577,0.0
2,8, 1, 8, 0, 8, 0.00,60.00,Tuesday
16,6210533.5028345175
1528,221348143.69985712
1577,0.0
2,8, 1, 8, 0, 9, 0.00,60.00,Tuesday
16,6194103.606645316
1528,210539448.30756405
1577,0.0
2,8, 1, 8, 0,10, 0.00,60.00,Tuesday
16,5473284.179204345
1528,198482797.31677964
1577,0.0
2,8, 1, 8, 0,11, 0.00,60.00,Tuesday
16,4271706.19198162
1528,187914852.833103
1577,0.0
2,8, 1, 8, 0,12, 0.00,60.00,Tuesday
16,3307854.1251308587
1528,182254122.59025264
1577,0.0
2,8, 1, 8, 0,13, 0.00,60.00,Tuesday
16,6037402.720424684
1528,177485302.6964265
1577,0.0
2,8, 1, 8, 0,14, 0.00,60.00,Tuesday
16,3307854.1251308587
1528,174302010.20560336
1577,0.0
2,8, 1, 8, 0,15, 0.00,60.00,Tuesday
16,6037756.890128618
1528,166576654.54531372
1577,0.0
2,8, 1, 8, 0,16, 0.00,60.00,Tuesday
16,3307854.1251308587
1528,163556974.04696977
1577,0.0
2,8, 1, 8, 0,17, 0.00,60.00,Tuesday
16,5602249.156616047
1528,165463995.3061689
1577,0.0
2,8, 1, 8, 0,18, 0.00,60.00,Tuesday
16,3776145.1554584103
1528,160290305.5959778
1577,0.0
2,8, 1, 8, 0,19, 0.00,60.00,Tuesday
16,6240762.279820662
1528,153241615.0251485
1577,0.0
2,8, 1, 8, 0,20, 0.00,60.00,Tuesday
16,6240856.599072157
1528,238860893.85858986
1577,0.0
2,8, 1, 8, 0,21, 0.00,60.00,Tuesday
16,6241301.832064342
1528,226453019.8191628
1577,0.0
2,8, 1, 8, 0,22, 0.00,60.00,Tuesday
16,3307854.1251308587
1528,212430173.3241204
1577,0.0
2,8, 1, 8, 0,23, 0.00,60.00,Tuesday
16,6210079.791645507
1528,204872521.9347471
1577,0.0
2,8, 1, 8, 0,24, 0.00,60.00,Tuesday
16,6210294.016478184
1528,206097246.39800173
1577,0.0
2,9, 1, 9, 0, 1, 0.00,60.00,Wednesday
16,3307854.1251308587
1528,209513303.14195657
1577,0.0
2,9, 1, 9, 0, 2, 0.00,60.00,Wednesday
16,3307854.1251308587
1528,220025963.11500153
1577,0.0
2,9, 1, 9, 0, 3, 0.00,60.00,Wednesday
16,5962306.746715884
1528,233672985.15384552
1577,0.0
2,9, 1, 9, 0, 4, 0.00,60.00,Wednesday
16,3307854.1251308587
1528,237224161.37209976
1577,0.0
2,9, 1, 9, 0, 5, 0.00,60.00,Wednesday
16,3307854.1251308587
1528,225703090.49501956
1577,0.0
2,9, 1, 9, 0, 6, 0.00,60.00,Wednesday
16,3307854.1251308587
1528,213293920.09653723
1577,0.0
2,9, 1, 9, 0, 7, 0.00,60.00,Wednesday
16,6210491.824001717
1528,209369295.87476912
1577,0.0
2,9, 1, 9, 0, 8, 0.00,60.00,Wednesday
16,6209829.5204452155
1528,123199034.91886781
1577,0.0
2,9, 1, 9, 0, 9, 0.00,60.00,Wednesday
16,6376809.767623822
1528,121976150.01559556
1577,0.0
2,9, 1, 9, 0,10, 0.00,60.00,Wednesday
16,6376299.886206705
1528,112659996.2072875
1577,0.0
2,9, 1, 9, 0,11, 0.00,60.00,Wednesday
16,3307854.1251308587
1528,102700055.84025934
1577,0.0
2,9, 1, 9, 0,12, 0.00,60.00,Wednesday
16,6037192.402834465
1528,91936554.45612343
1577,0.0
2,9, 1, 9, 0,13, 0.00,60.00,Wednesday
16,3307854.1251308587
1528,81193469.93175894
1577,0.0
2,9, 1, 9, 0,14, 0.00,60.00,Wednesday
16,3307854.1251308587
1528,79598958.62709986
1577,0.0
2,9, 1, 9, 0,15, 0.00,60.00,Wednesday
16,6037788.535826586
1528,82304909.68637942
1577,0.0
2,9, 1, 9, 0,16, 0.00,60.00,Wednesday
16,3307854.1251308587
1528,85400539.85271992
1577,0.0
2,9, 1, 9, 0,17, 0.00,60.00,Wednesday
16,6037714.894141971
1528,89111179.90431766
1577,0.0
2,9, 1, 9, 0,18, 0.00,60.00,Wednesday
16,5708886.930172193
1528,91677738.23261857
1577,0.0
2,9, 1, 9, 0,19, 0.00,60.00,Wednesday
16,3839948.9897789047
1528,94749829.76404528
1577,0.0
2,9, 1, 9, 0,20, 0.00,60.00,Wednesday
16,6240628.279600674
1528,186845572.96767268
1577,0.0
2,9, 1, 9, 0,21, 0.00,60.00,Wednesday
16,6240880.896969163
1528,164627089.32179
1577,0.0
2,9, 1, 9, 0,22, 0.00,60.00,Wednesday
16,6210485.264073315
1528,145750929.75158453
1577,0.0
2,9, 1, 9, 0,23, 0.00,60.00,Wednesday
16,3307854.1251308587
1528,137740833.0472281
1577,0.0
2,9, 1, 9, 0,24, 0.00,60.00,Wednesday
16,6209834.778920789
1528,135246580.3597275
1577,0.0
2,10, 1,10, 0, 1, 0.00,60.00,Thursday
16,3307854.1251308587
1528,138290391.53384185
1577,0.0
2,10, 1,10, 0, 2, 0.00,60.00,Thursday
16,5962508.285374625
1528,145572337.8888655
1577,0.0
2,10, 1,10, 0, 3, 0.00,60.00,Thursday
16,3307854.1251308587
1528,167936206.2708657
1577,0.0
2,10, 1,10, 0, 4, 0.00,60.00,Thursday
16,3307854.1251308587
1528,179271262.55592686
1577,0.0
2,10, 1,10, 0, 5, 0.00,60.00,Thursday
16,3307854.1251308587
1528,180149719.2045837
1577,0.0
2,10, 1,10, 0, 6, 0.00,60.00,Thursday
16,5962176.619940317
1528,180585293.6324587
1577,0.0
2,10, 1,10, 0, 7, 0.00,60.00,Thursday
16,3535905.3453210955
1528,181159967.46103442
1577,0.0
2,10, 1,10, 0, 8, 0.00,60.00,Thursday
16,5981429.264016114
1528,95000811.67025518
1577,0.0
2,10, 1,10, 0, 9, 0.00,60.00,Thursday
16,6377035.904288023
1528,103783511.7488221
1577,0.0
2,10, 1,10, 0,10, 0.00,60.00,Thursday
16,6376889.206162244
1528,111697675.80396628
1577,0.0
2,10, 1,10, 0,11, 0.00,60.00,Thursday
16,4735484.5459851585
1528,97868012.52347827
1577,0.0
2,10, 1,10, 0,12, 0.00,60.00,Thursday
16,4609522.249649033
1528,88069630.81527558
1577,0.0
2,10, 1,10, 0,13, 0.00,60.00,Thursday
16,3307854.1251308587
1528,90615483.89182794
1577,0.0
2,10, 1,10, 0,14, 0.00,60.00,Thursday
16,6037631.678747499
1528,91088374.77050766
1577,0.0
2,10, 1,10, 0,15, 0.00,60.00,Thursday
16,3307854.1251308587
1528,92913830.95293653
1577,0.0
2,10, 1,10, 0,16, 0.00,60.00,Thursday
16,6037736.670139743
1528,97875042.73626739
1577,0.0
2,10, 1,10, 0,17, 0.00,60.00,Thursday
16,3307854.1251308587
1528,103437499.23800741
1577,0.0
2,10, 1,10, 0,18, 0.00,60.00,Thursday
16,6240974.78851094
1528,118033461.49411988
1577,0.0
2,10, 1,10, 0,19, 0.00,60.00,Thursday
16,6241510.877580542
1528,123301992.28854872
1577,0.0
2,10, 1,10, 0,20, 0.00,60.00,Thursday
16,3307854.1251308587
1528,214902889.8710326
1577,0.0
2,10, 1,10, 0,21, 0.00,60.00,Thursday
16,6241420.079589051
1528,216822091.49665385
1577,0.0
2,10, 1,10, 0,22, 0.00,60.00,Thursday
16,6210002.949688506
1528,219531396.29488778
1577,0.0
2,10, 1,10, 0,23, 0.00,60.00,Thursday
16,6210414.959088521
1528,221525067.44071293
1577,0.0
2,10, 1,10, 0,24, 0.00,60.00,Thursday
16,3307854.1251308587
1528,211989364.99337894
1577,0.0
2,11, 1,11, 0, 1, 0.00,60.00,Friday
16,5962505.492327934
1528,204181657.17707968
1577,0.0
2,11, 1,11, 0, 2, 0.00,60.00,Friday
16,3307854.1251308587
1528,206719159.66398886
1577,0.0
2,11, 1,11, 0, 3, 0.00,60.00,Friday
16,3307854.1251308587
1528,212191616.00793153
1577,0.0
2,11, 1,11, 0, 4, 0.00,60.00,Friday
16,3767346.8159109713
1528,217726816.8251841
1577,0.0
2,11, 1,11, 0, 5, 0.00,60.00,Friday
16,5502727.024176472
1528,221001388.2939334
1577,0.0
2,11, 1,11, 0, 6, 0.00,60.00,Friday
16,3307854.1251308587
1528,219439738.6439125
1577,0.0
2,11, 1,11, 0, 7, 0.00,60.00,Friday
16,6210464.409485719
1528,217918940.67780828
1577,0.0
2,11, 1,11, 0, 8, 0.00,60.00,Friday
16,4481075.336737845
1528,126280362.12543158
1577,0.0
2,11, 1,11, 0, 9, 0.00,60.00,Friday
16,5472115.954571874
1528,133652388.91506234
1577,0.0
2,11, 1,11, 0,10, 0.00,60.00,Friday
16,6041473.373304426
1528,134304346.5776995
1577,0.0
2,11, 1,11, 0,11, 0.00,60.00,Friday
16,6037714.004676934
1528,115535605.12077671
1577,0.0
2,11, 1,11, 0,12, 0.00,60.00,Friday
16,3307854.1251308587
1528,114703112.9503111
1577,0.0
2,11, 1,11, 0,13, 0.00,60.00,Friday
16,6037161.177838613
1528,115896551.30025269
1577,0.0
2,11, 1,11, 0,14, 0.00,60.00,Friday
16,3307854.1251308587
1528,116912132.73342772
1577,0.0
2,11, 1,11, 0,15, 0.00,60.00,Friday
16,6037520.677641472
1528,110230197.42304777
1577,0.0
2,11, 1,11, 0,16, 0.00,60.00,Friday
16,3307854.1251308587
1528,122351438.75269258
1577,0.0
2,11, 1,11, 0,17, 0.00,60.00,Friday
16,3307854.1251308587
1528,136573144.55778998
1577,0.0
2,11, 1,11, 0,18, 0.00,60.00,Friday
16,6241458.82398323
1528,134339901.0647399
1577,0.0
2,11, 1,11, 0,19, 0.00,60.00,Friday
16,6241368.032376764
1528,134108014.80958156
1577,0.0
2,11, 1,11, 0,20, 0.00,60.00,Friday
16,6240920.492802661
1528,227087516.12420595
1577,0.0
2,11, 1,11, 0,21, 0.00,60.00,Friday
16,4842738.520829075
1528,222040116.13618642
1577,0.0
2,11, 1,11, 0,22, 0.00,60.00,Friday
16,4690936.1352414675
1528,220337768.49920517
1577,0.0
2,11, 1,11, 0,23, 0.00,60.00,Friday
16,6210503.48867079
1528,230045528.85943082
1577,0.0
2,11, 1,11, 0,24, 0.00,60.00,Friday
16,6209825.3901700545
1528,225499838.6616627
1577,0.0
2,12, 1,12, 0, 1, 0.00,60.00,Saturday
16,3307854.1251308587
1528,216622862.82368413
1577,0.0
2,12, 1,12, 0, 2, 0.00,60.00,Saturday
16,3307854.1251308587
1528,212787114.84870067
1577,0.0
2,12, 1,12, 0, 3, 0.00,60.00,Saturday
16,3361170.14223346
1528,209045663.6048486
1577,0.0
2,12, 1,12, 0, 4, 0.00,60.00,Saturday
16,5909194.801850712
1528,203015747.5176781
1577,0.0
2,12, 1,12, 0, 5, 0.00,60.00,Saturday
16,3307854.1251308587
1528,196767506.242269
1577,0.0
2,12, 1,12, 0, 6, 0.00,60.00,Saturday
16,3307854.1251308587
1528,194707773.63817364
1577,0.0
2,12, 1,12, 0, 7, 0.00,60.00,Saturday
16,6210145.75282311
1528,195632787.371121
1577,0.0
2,12, 1,12, 0, 8, 0.00,60.00,Saturday
16,6210213.497216881
1528,101818632.81997944
1577,0.0
2,12, 1,12, 0, 9, 0.00,60.00,Saturday
16,6376444.778752929
1528,104314441.59277195
1577,0.0
2,12, 1,12, 0,10, 0.00,60.00,Saturday
16,6377053.097583309
1528,106340267.4454478
1577,0.0
2,12, 1,12, 0,11, 0.00,60.00,Saturday
16,3307854.1251308587
1528,118252637.17608134
1577,0.0
2,12, 1,12, 0,12, 0.00,60.00,Saturday
16,3307854.1251308587
1528,122033723.89433095
1577,0.0
2,12, 1,12, 0,13, 0.00,60.00,Saturday
16,6037792.561211084
1528,115632359.79942511
1577,0.0
2,12, 1,12, 0,14, 0.00,60.00,Saturday
16,3307854.1251308587
1528,118979196.28963777
1577,0.0
2,12, 1,12, 0,15, 0.00,60.00,Saturday
16,6037718.922602852
1528,112452235.57330522
1577,0.0
2,12, 1,12, 0,16, 0.00,60.00,Saturday
16,3307854.1251308587
1528,110228146.11883333
1577,0.0
2,12, 1,12, 0,17, 0.00,60.00,Saturday
16,6037171.975132594
1528,116356190.59925754
1577,0.0
2,12, 1,12, 0,18, 0.00,60.00,Saturday
16,3307854.1251308587
1528,125783401.69822007
1577,0.0
2,12, 1,12, 0,19, 0.00,60.00,Saturday
16,6241466.480015323
1528,131443921.30609229
1577,0.0
2,12, 1,12, 0,20, 0.00,60.00,Saturday
16,6241375.640261241
1528,223893925.74904227
1577,0.0
2,12, 1,12, 0,21, 0.00,60.00,Saturday
16,6240950.529151579
1528,222914423.01164624
1577,0.0
2,12, 1,12, 0,22, 0.00,60.00,Saturday
16,3774749.263062899
1528,222986375.74464127
1577,0.0
2,12, 1,12, 0,23, 0.00,60.00,Saturday
16,5743289.740509856
1528,228726392.4660608
1577,0.0
2,12, 1,12, 0,24, 0.00,60.00,Saturday
16,6210173.145670809
1528,237535980.71869323
1577,0.0
2,13, 1,13, 0, 1, 0.00,60.00,Sunday
16,3307854.1251308587
1528,242658587.27462593
1577,0.0
2,13, 1,13, 0, 2, 0.00,60.00,Sunday
16,3307854.1251308587
1528,243924163.0326225
1577,0.0
2,13, 1,13, 0, 3, 0.00,60.00,Sunday
16,5962486.87522824
1528,238953097.89550084
1577,0.0
2,13, 1,13, 0, 4, 0.00,60.00,Sunday
16,3307854.1251308587
1528,241904270.91208425
1577,0.0
2,13, 1,13, 0, 5, 0.00,60.00,Sunday
16,3307854.1251308587
1528,248960827.4646608
1577,0.0
2,13, 1,13, 0, 6, 0.00,60.00,Sunday
16,5962323.287613312
1528,254613845.72314084
1577,0.0
2,13, 1,13, 0, 7, 0.00,60.00,Sunday
16,3307854.1251308587
1528,254220382.38407603
1577,0.0
2,13, 1,13, 0, 8, 0.00,60.00,Sunday
16,6209755.85204991
1528,154764572.0551648
1577,0.0
2,13, 1,13, 0, 9, 0.00,60.00,Sunday
16,6376249.479237798
1528,158961164.37078822
1577,0.0
2,13, 1,13, 0,10, 0.00,60.00,Sunday
16,6376385.588298139
1528,155422428.9917399
1577,0.0
2,13, 1,13, 0,11, 0.00,60.00,Sunday
16,3307854.1251308587
1528,124566331.33736366
1577,0.0
2,13, 1,13, 0,12, 0.00,60.00,Sunday
16,6037600.695087334
1528,102957347.2711559
1577,0.0
2,13, 1,13, 0,13, 0.00,60.00,Sunday
16,3307854.1251308587
1528,107929374.09109771
1577,0.0
2,13, 1,13, 0,14, 0.00,60.00,Sunday
16,6037739.066426802
1528,113134260.25437903
1577,0.0
2,13, 1,13, 0,15, 0.00,60.00,Sunday
16,3307854.1251308587
1528,114622386.09430239
1577,0.0
2,13, 1,13, 0,16, 0.00,60.00,Sunday
16,5304408.310964825
1528,115629143.10276738
1577,0.0
2,13, 1,13, 0,17, 0.00,60.00,Sunday
16,4040707.3861884493
1528,115851640.75126576
1577,0.0
2,13, 1,13, 0,18, 0.00,60.00,Sunday
16,6240859.242188696
1528,117168568.89735627
1577,0.0
2,13, 1,13, 0,19, 0.00,60.00,Sunday
16,4694427.933002246
1528,117988584.25572285
1577,0.0
2,13, 1,13, 0,20, 0.00,60.00,Sunday
16,4853926.048458551
1528,210874908.8039059
1577,0.0
2,13, 1,13, 0,21, 0.00,60.00,Sunday
16,6241012.746769944
1528,207992248.63838333
1577,0.0
2,13, 1,13, 0,22, 0.00,60.00,Sunday
16,6210487.737392264
1528,206394194.9067678
1577,0.0
2,13, 1,13, 0,23, 0.00,60.00,Sunday
16,4688122.945663219
1528,204862733.20737728
1577,0.0
2,13, 1,13, 0,24, 0.00,60.00,Sunday
16,4829563.7134394515
1528,203203252.39515787
1577,0.0
2,14, 1,14, 0, 1, 0.00,60.00,Monday
16,5817120.680668585
1528,202104554.26094556
1577,0.0
2,14, 1,14, 0, 2, 0.00,60.00,Monday
16,3453118.4079977446
1528,200595719.28700686
1577,0.0
2,14, 1,14, 0, 3, 0.00,60.00,Monday
16,3307854.1251308587
1528,198428565.7618361
1577,0.0
2,14, 1,14, 0, 4, 0.00,60.00,Monday
16,3307854.1251308587
1528,197467371.8769702
1577,0.0
2,14, 1,14, 0, 5, 0.00,60.00,Monday
16,5962418.129170972
1528,196060072.88360083
1577,0.0
2,14, 1,14, 0, 6, 0.00,60.00,Monday
16,3307854.1251308587
1528,193968461.38465607
1577,0.0
2,14, 1,14, 0, 7, 0.00,60.00,Monday
16,6210335.558607256
1528,192751334.66457582
1577,0.0
2,14, 1,14, 0, 8, 0.00,60.00,Monday
16,3307854.1251308587
1528,97316076.52415928
1577,0.0
2,14, 1,14, 0, 9, 0.00,60.00,Monday
16,6376726.121021264
1528,95084491.69869198
1577,0.0
2,14, 1,14, 0,10, 0.00,60.00,Monday
16,6376274.028186612
1528,92209161.80267832
1577,0.0
2,14, 1,14, 0,11, 0.00,60.00,Monday
16,6037350.342739541
1528,89062277.13434961
1577,0.0