Program Version,EnergyPlus, Version 23.2.0-7636e6b3e9, YMD=2025.02.02 23:59
1,5,Environment Title[],Latitude[deg],Longitude[deg],Time Zone[],Elevation[m]
2,8,Day of Simulation[],Month[],Day of Month[],DST Indicator[1=yes 0=no],Hour[],StartMinute[],EndMinute[],DayType
3,5,Cumulative Day of Simulation[],Month[],Day of Month[],DST Indicator[1=yes 0=no],DayType  ! When Daily Meters Requested
4,2,Cumulative Days of Simulation[],Month[]  ! When Monthly Meters Requested
5,1,Cumulative Days of Simulation[] ! When Run Period Meters Requested
6,1,Calendar Year of Simulation[] ! When Annual Meters Requested
1528,1,Heating:EnergyTransfer [J] !Hourly
1577,1,Cooling:EnergyTransfer [J] !Hourly
16,1,Electricity:Facility [J] !Hourly
End of Data Dictionary
1,RUN PERIOD 1,  52.46,   5.52,   1.00,  -3.90
2,1, 1, 1, 0, 1, 0.00,60.00,Tuesday
16,3189789.34720611
1528,215833822.0744922
1577,0.0
2,1, 1, 1, 0, 2, 0.00,60.00,Tuesday
16,3189789.34720611
1528,207785871.85312635
1577,0.0
2,1, 1, 1, 0, 3, 0.00,60.00,Tuesday
16,3189789.34720611
1528,210759548.28585848
1577,0.0
2,1, 1, 1, 0, 4, 0.00,60.00,Tuesday
16,5844247.583268721
1528,213318447.32633978
1577,0.0
2,1, 1, 1, 0, 5, 0.00,60.00,Tuesday
16,3189789.34720611
1528,215218118.07583863
1577,0.0
2,1, 1, 1, 0, 6, 0.00,60.00,Tuesday
16,3189789.34720611
1528,218279845.275294
1577,0.0
2,1, 1, 1, 0, 7, 0.00,60.00,Tuesday
16,6091810.279464114
1528,221898390.04476595
1577,0.0
2,1, 1, 1, 0, 8, 0.00,60.00,Tuesday
16,6092484.619055238
1528,117179822.45055017
1577,0.0
2,1, 1, 1, 0, 9, 0.00,60.00,Tuesday
16,6178274.083930401
1528,127082047.68622121
1577,0.0
2,1, 1, 1, 0,10, 0.00,60.00,Tuesday
16,5355359.747519755
1528,127291117.49432388
1577,0.0
2,1, 1, 1, 0,11, 0.00,60.00,Tuesday
16,4062762.8583929045
1528,131237128.84142436
1577,0.0
2,1, 1, 1, 0,12, 0.00,60.00,Tuesday
16,3189789.34720611
1528,138915462.99082172
1577,0.0
2,1, 1, 1, 0,13, 0.00,60.00,Tuesday
16,5919288.938722953
1528,142803784.92773503
1577,0.0
2,1, 1, 1, 0,14, 0.00,60.00,Tuesday
16,3189789.34720611
1528,146345977.8739153
1577,0.0
2,1, 1, 1, 0,15, 0.00,60.00,Tuesday
16,5919697.55097672
1528,148139136.18038207
1577,0.0
2,1, 1, 1, 0,16, 0.00,60.00,Tuesday
16,3189789.34720611
1528,151989962.57492816
1577,0.0
2,1, 1, 1, 0,17, 0.00,60.00,Tuesday
16,5575093.511540717
1528,149907175.7863602
1577,0.0
2,1, 1, 1, 0,18, 0.00,60.00,Tuesday
16,3560327.390622591
1528,144048351.47084746
1577,0.0
2,1, 1, 1, 0,19, 0.00,60.00,Tuesday
16,6122711.161616987
1528,137691683.72618622
1577,0.0
2,1, 1, 1, 0,20, 0.00,60.00,Tuesday
16,6122759.374155959
1528,239503868.77812886
1577,0.0
2,1, 1, 1, 0,21, 0.00,60.00,Tuesday
16,6123158.325312483
1528,227470457.6760328
1577,0.0
2,1, 1, 1, 0,22, 0.00,60.00,Tuesday
16,3189789.34720611
1528,221754378.6382711
1577,0.0
2,1, 1, 1, 0,23, 0.00,60.00,Tuesday
16,6092078.2288626935
1528,226743584.2892988
1577,0.0
2,1, 1, 1, 0,24, 0.00,60.00,Tuesday
16,6092151.458909644
1528,232698465.7021509
1577,0.0
2,2, 1, 2, 0, 1, 0.00,60.00,Wednesday
16,3189789.34720611
1528,235416128.4477787
1577,0.0
2,2, 1, 2, 0, 2, 0.00,60.00,Wednesday
16,3189789.34720611
1528,230597887.62213153
1577,0.0
2,2, 1, 2, 0, 3, 0.00,60.00,Wednesday
16,5844066.843569793
1528,229355652.33196595
1577,0.0
2,2, 1, 2, 0, 4, 0.00,60.00,Wednesday
16,3189789.34720611
1528,234162632.26425523
1577,0.0
2,2, 1, 2, 0, 5, 0.00,60.00,Wednesday
16,3189789.34720611
1528,225840514.9472203
1577,0.0
2,2, 1, 2, 0, 6, 0.00,60.00,Wednesday
16,3189789.34720611
1528,219615920.45141685
1577,0.0
2,2, 1, 2, 0, 7, 0.00,60.00,Wednesday
16,6092438.851091942
1528,215997133.5151959
1577,0.0
2,2, 1, 2, 0, 8, 0.00,60.00,Wednesday
16,6091760.606569979
1528,97513826.92575976
1577,0.0
2,2, 1, 2, 0, 9, 0.00,60.00,Wednesday
16,6258810.885747083
1528,96321821.63470466
1577,0.0
2,2, 1, 2, 0,10, 0.00,60.00,Wednesday
16,6258258.415322708
1528,98707719.03875071
1577,0.0
2,2, 1, 2, 0,11, 0.00,60.00,Wednesday
16,3189789.34720611
1528,101332594.49385828
1577,0.0
2,2, 1, 2, 0,12, 0.00,60.00,Wednesday
16,5919096.433042328
1528,111696480.44240594
1577,0.0
2,2, 1, 2, 0,13, 0.00,60.00,Wednesday
16,3189789.34720611
1528,115405071.54453103
1577,0.0
2,2, 1, 2, 0,14, 0.00,60.00,Wednesday
16,3210144.9022659296
1528,116807710.04259168
1577,0.0
2,2, 1, 2, 0,15, 0.00,60.00,Wednesday
16,5899359.763391012
1528,104983133.61695758
1577,0.0
2,2, 1, 2, 0,16, 0.00,60.00,Wednesday
16,3189789.34720611
1528,100872194.74668977
1577,0.0
2,2, 1, 2, 0,17, 0.00,60.00,Wednesday
16,5919661.362075275
1528,105893630.80087154
1577,0.0
2,2, 1, 2, 0,18, 0.00,60.00,Wednesday
16,5688276.411026709
1528,112347207.73807478
1577,0.0
2,2, 1, 2, 0,19, 0.00,60.00,Wednesday
16,3624485.3250888176
1528,128222677.19096792
1577,0.0
2,2, 1, 2, 0,20, 0.00,60.00,Wednesday
16,6122528.771513531
1528,242843728.84398958
1577,0.0
2,2, 1, 2, 0,21, 0.00,60.00,Wednesday
16,6122779.831020087
1528,234480967.0125467
1577,0.0
2,2, 1, 2, 0,22, 0.00,60.00,Wednesday
16,6092432.306622197
1528,230249193.29780874
1577,0.0
2,2, 1, 2, 0,23, 0.00,60.00,Wednesday
16,3189789.34720611
1528,233609742.53824958
1577,0.0
2,2, 1, 2, 0,24, 0.00,60.00,Wednesday
16,6091762.024964312
1528,239625257.04142356
1577,0.0
2,3, 1, 3, 0, 1, 0.00,60.00,Thursday
16,3189789.34720611
1528,250565616.65594947
1577,0.0
2,3, 1, 3, 0, 2, 0.00,60.00,Thursday
16,5844454.501288589
1528,257343727.12628096
1577,0.0
2,3, 1, 3, 0, 3, 0.00,60.00,Thursday
16,3189789.34720611
1528,257966112.60545862
1577,0.0
2,3, 1, 3, 0, 4, 0.00,60.00,Thursday
16,3189789.34720611
1528,263885321.9954352
1577,0.0
2,3, 1, 3, 0, 5, 0.00,60.00,Thursday
16,3189789.34720611
1528,263877216.58141005
1577,0.0
2,3, 1, 3, 0, 6, 0.00,60.00,Thursday
16,5843979.604070241
1528,267728235.0185613
1577,0.0
2,3, 1, 3, 0, 7, 0.00,60.00,Thursday
16,3522932.9100638516
1528,274999666.52571887
1577,0.0
2,3, 1, 3, 0, 8, 0.00,60.00,Thursday
16,5758254.083331324
1528,164101844.6975829
1577,0.0
2,3, 1, 3, 0, 9, 0.00,60.00,Thursday
16,6258983.457532426
1528,171095337.8128129
1577,0.0
2,3, 1, 3, 0,10, 0.00,60.00,Thursday
16,6258836.780391566
1528,167109426.48457226
1577,0.0
2,3, 1, 3, 0,11, 0.00,60.00,Thursday
16,4805815.914395643
1528,151610260.918992
1577,0.0
2,3, 1, 3, 0,12, 0.00,60.00,Thursday
16,4303074.295510907
1528,142638963.77566433
1577,0.0
2,3, 1, 3, 0,13, 0.00,60.00,Thursday
16,3189789.34720611
1528,140484640.72006917
1577,0.0
2,3, 1, 3, 0,14, 0.00,60.00,Thursday
16,5919430.124990569
1528,147241565.44165027
1577,0.0
2,3, 1, 3, 0,15, 0.00,60.00,Thursday
16,3189789.34720611
1528,149558143.32965165
1577,0.0
2,3, 1, 3, 0,16, 0.00,60.00,Thursday
16,5919683.16844699
1528,164153657.9827447
1577,0.0
2,3, 1, 3, 0,17, 0.00,60.00,Thursday
16,3189789.34720611
1528,181195912.72391903
1577,0.0
2,3, 1, 3, 0,18, 0.00,60.00,Thursday
16,6122861.25311707
1528,193060618.99314988
1577,0.0
2,3, 1, 3, 0,19, 0.00,60.00,Thursday
16,6123385.53873641
1528,204886506.79402474
1577,0.0
2,3, 1, 3, 0,20, 0.00,60.00,Thursday
16,3189789.34720611
1528,318859870.044081
1577,0.0
2,3, 1, 3, 0,21, 0.00,60.00,Thursday
16,6123367.218824713
1528,306493209.5474882
1577,0.0
2,3, 1, 3, 0,22, 0.00,60.00,Thursday
16,6091991.324358499
1528,296496902.97187924
1577,0.0
2,3, 1, 3, 0,23, 0.00,60.00,Thursday
16,6092262.86503149
1528,285154814.46745396
1577,0.0
2,3, 1, 3, 0,24, 0.00,60.00,Thursday
16,3189789.34720611
1528,274648035.677971
1577,0.0
2,4, 1, 4, 0, 1, 0.00,60.00,Friday
16,5844451.749164034
1528,310626589.84038544
1577,0.0
2,4, 1, 4, 0, 2, 0.00,60.00,Friday
16,3189789.34720611
1528,337139085.445741
1577,0.0
2,4, 1, 4, 0, 3, 0.00,60.00,Friday
16,3189789.34720611
1528,340818117.0767709
1577,0.0
2,4, 1, 4, 0, 4, 0.00,60.00,Friday
16,3953520.8757637525
1528,345779677.1502854
1577,0.0
2,4, 1, 4, 0, 5, 0.00,60.00,Friday
16,5080275.581952101
1528,350304185.8932233
1577,0.0
2,4, 1, 4, 0, 6, 0.00,60.00,Friday
16,3189789.34720611
1528,354113626.3597888
1577,0.0
2,4, 1, 4, 0, 7, 0.00,60.00,Friday
16,6092411.490075881
1528,359550380.2991377
1577,0.0
2,4, 1, 4, 0, 8, 0.00,60.00,Friday
16,4468046.726415463
1528,239310664.60444534
1577,0.0
2,4, 1, 4, 0, 9, 0.00,60.00,Friday
16,5354065.105091835
1528,233596513.73446748
1577,0.0
2,4, 1, 4, 0,10, 0.00,60.00,Friday
16,5812249.882829906
1528,226654310.58044195
1577,0.0
2,4, 1, 4, 0,11, 0.00,60.00,Friday
16,5919665.743750295
1528,219360882.54529905
1577,0.0
2,4, 1, 4, 0,12, 0.00,60.00,Friday
16,3189789.34720611
1528,211975000.27874297
1577,0.0
2,4, 1, 4, 0,13, 0.00,60.00,Friday
16,5919149.885518316
1528,204586942.2322169
1577,0.0
2,4, 1, 4, 0,14, 0.00,60.00,Friday
16,3189789.34720611
1528,205642565.18799725
1577,0.0
2,4, 1, 4, 0,15, 0.00,60.00,Friday
16,5919290.25328489
1528,211834573.30273366
1577,0.0
2,4, 1, 4, 0,16, 0.00,60.00,Friday
16,3189789.34720611
1528,218244097.70505288
1577,0.0
2,4, 1, 4, 0,17, 0.00,60.00,Friday
16,3189789.34720611
1528,225872983.64670193
1577,0.0
2,4, 1, 4, 0,18, 0.00,60.00,Friday
16,6123411.465761626
1528,232770464.49973553
1577,0.0
2,4, 1, 4, 0,19, 0.00,60.00,Friday
16,6123320.687587155
1528,238860896.2214635
1577,0.0
2,4, 1, 4, 0,20, 0.00,60.00,Friday
16,6122927.686885534
1528,368730522.23498476
1577,0.0
2,4, 1, 4, 0,21, 0.00,60.00,Friday
16,4867295.847794832
1528,376133050.234033
1577,0.0
2,4, 1, 4, 0,22, 0.00,60.00,Friday
16,4431762.08730978
1528,379074873.2611044
1577,0.0
2,4, 1, 4, 0,23, 0.00,60.00,Friday
16,6092454.619029531
1528,391973337.1930681
1577,0.0
2,4, 1, 4, 0,24, 0.00,60.00,Friday
16,6091765.951451497
1528,399745576.6024745
1577,0.0
2,5, 1, 5, 0, 1, 0.00,60.00,Saturday
16,3189789.34720611
1528,397792781.9532208
1577,0.0
2,5, 1, 5, 0, 2, 0.00,60.00,Saturday
16,3189789.34720611
1528,397726757.7662703
1577,0.0
2,5, 1, 5, 0, 3, 0.00,60.00,Saturday
16,3650158.095232092
1528,399363573.7082311
1577,0.0
2,5, 1, 5, 0, 4, 0.00,60.00,Saturday
16,5383785.678302992
1528,401044515.9435117
1577,0.0
2,5, 1, 5, 0, 5, 0.00,60.00,Saturday
16,3189789.34720611
1528,402759595.0006044
1577,0.0
2,5, 1, 5, 0, 6, 0.00,60.00,Saturday
16,3189789.34720611
1528,404504092.6784395
1577,0.0
2,5, 1, 5, 0, 7, 0.00,60.00,Saturday
16,6091997.645414649
1528,408091444.2904621
1577,0.0
2,5, 1, 5, 0, 8, 0.00,60.00,Saturday
16,6092253.33881839
1528,286352585.056961
1577,0.0
2,5, 1, 5, 0, 9, 0.00,60.00,Saturday
16,6258331.1020129975
1528,279181062.54339814
1577,0.0
2,5, 1, 5, 0,10, 0.00,60.00,Saturday
16,6258993.36253031
1528,271220275.3053605
1577,0.0
2,5, 1, 5, 0,11, 0.00,60.00,Saturday
16,3189789.34720611
1528,262426928.49190724
1577,0.0
2,5, 1, 5, 0,12, 0.00,60.00,Saturday
16,3341174.249072618
1528,252830319.59573713
1577,0.0
2,5, 1, 5, 0,13, 0.00,60.00,Saturday
16,5768218.003603106
1528,244483349.4883442
1577,0.0
2,5, 1, 5, 0,14, 0.00,60.00,Saturday
16,3189789.34720611
1528,242947244.89431894
1577,0.0
2,5, 1, 5, 0,15, 0.00,60.00,Saturday
16,5919669.202916939
1528,246341736.38093314
1577,0.0
2,5, 1, 5, 0,16, 0.00,60.00,Saturday
16,3189789.34720611
1528,249431910.00794423
1577,0.0
2,5, 1, 5, 0,17, 0.00,60.00,Saturday
16,5919167.290031131
1528,251748591.9022894
1577,0.0
2,5, 1, 5, 0,18, 0.00,60.00,Saturday
16,3189789.34720611
1528,255040598.57155234
1577,0.0
2,5, 1, 5, 0,19, 0.00,60.00,Saturday
16,6123417.627592897
1528,257757488.23721588
1577,0.0
2,5, 1, 5, 0,20, 0.00,60.00,Saturday
16,6123326.804159118
1528,373917754.2657442
1577,0.0
2,5, 1, 5, 0,21, 0.00,60.00,Saturday
16,6122956.223382486
1528,371922871.5548832
1577,0.0
2,5, 1, 5, 0,22, 0.00,60.00,Saturday
16,3796746.1832384234
1528,370532107.89511335
1577,0.0
2,5, 1, 5, 0,23, 0.00,60.00,Saturday
16,5485074.776240349
1528,367878435.4517735
1577,0.0
2,5, 1, 5, 0,24, 0.00,60.00,Saturday
16,6092207.536211792
1528,367064611.2330373
1577,0.0
2,6, 1, 6, 0, 1, 0.00,60.00,Sunday
16,3189789.34720611
1528,366371321.62773335
1577,0.0
2,6, 1, 6, 0, 2, 0.00,60.00,Sunday
16,3189789.34720611
1528,368336146.3043966
1577,0.0
2,6, 1, 6, 0, 3, 0.00,60.00,Sunday
16,5844449.513243491
1528,370672199.9574542
1577,0.0
2,6, 1, 6, 0, 4, 0.00,60.00,Sunday
16,3189789.34720611
1528,373541464.141914
1577,0.0
2,6, 1, 6, 0, 5, 0.00,60.00,Sunday
16,3189789.34720611
1528,377184357.64869905
1577,0.0
2,6, 1, 6, 0, 6, 0.00,60.00,Sunday
16,5844032.210053684
1528,379620332.6552674
1577,0.0
2,6, 1, 6, 0, 7, 0.00,60.00,Sunday
16,3189789.34720611
1528,384288940.989814
1577,0.0
2,6, 1, 6, 0, 8, 0.00,60.00,Sunday
16,6091639.542919248
1528,267614086.24711257
1577,0.0
2,6, 1, 6, 0, 9, 0.00,60.00,Sunday
16,6258201.406298583
1528,266087758.3304475
1577,0.0
2,6, 1, 6, 0,10, 0.00,60.00,Sunday
16,6258279.836383719
1528,264608794.7874911
1577,0.0
2,6, 1, 6, 0,11, 0.00,60.00,Sunday
16,3189789.34720611
1528,262272135.8367219
1577,0.0
2,6, 1, 6, 0,12, 0.00,60.00,Sunday
16,5919364.187541459
1528,259002707.70946187
1577,0.0
2,6, 1, 6, 0,13, 0.00,60.00,Sunday
16,3189789.34720611
1528,255660591.53013268
1577,0.0
2,6, 1, 6, 0,14, 0.00,60.00,Sunday
16,5919689.4185815435
1528,252309095.19624186
1577,0.0
2,6, 1, 6, 0,15, 0.00,60.00,Sunday
16,3189789.34720611
1528,248905059.3634198
1577,0.0
2,6, 1, 6, 0,16, 0.00,60.00,Sunday
16,5439164.818743964
1528,246712764.837354
1577,0.0
2,6, 1, 6, 0,17, 0.00,60.00,Sunday
16,3669936.607132446
1528,244012838.24305266
1577,0.0
2,6, 1, 6, 0,18, 0.00,60.00,Sunday
16,6122847.953128599
1528,240522974.8158866
1577,0.0
2,6, 1, 6, 0,19, 0.00,60.00,Sunday
16,4707590.030069658
1528,237001003.74281538
1577,0.0
2,6, 1, 6, 0,20, 0.00,60.00,Sunday
16,4604673.06444189
1528,350945658.3217297
1577,0.0
2,6, 1, 6, 0,21, 0.00,60.00,Sunday
16,6122878.1303948555
1528,349451986.1140448
1577,0.0
2,6, 1, 6, 0,22, 0.00,60.00,Sunday
16,6092438.840873906
1528,348494706.5486917
1577,0.0
2,6, 1, 6, 0,23, 0.00,60.00,Sunday
16,4710826.438088262
1528,346373511.9131675
1577,0.0
2,6, 1, 6, 0,24, 0.00,60.00,Sunday
16,4570723.518546062
1528,345993369.4254552
1577,0.0
2,7, 1, 7, 0, 1, 0.00,60.00,Monday
16,5844444.935039768
1528,345737785.8479123
1577,0.0
2,7, 1, 7, 0, 2, 0.00,60.00,Monday
16,3189789.34720611
1528,362898567.3446018
1577,0.0
2,7, 1, 7, 0, 3, 0.00,60.00,Monday
16,3189789.34720611
1528,392034134.3008069
1577,0.0
2,7, 1, 7, 0, 4, 0.00,60.00,Monday
16,3189789.34720611
1528,422352245.99653697
1577,0.0
2,7, 1, 7, 0, 5, 0.00,60.00,Monday
16,5844091.300832227
1528,451830363.40284705
1577,0.0
2,7, 1, 7, 0, 6, 0.00,60.00,Monday
16,3189789.34720611
1528,480909618.0376023
1577,0.0
2,7, 1, 7, 0, 7, 0.00,60.00,Monday
16,6092163.2583648525
1528,513986178.11675626
1577,0.0
2,7, 1, 7, 0, 8, 0.00,60.00,Monday
16,3189789.34720611
1528,393670632.0074707
1577,0.0
2,7, 1, 7, 0, 9, 0.00,60.00,Monday
16,6258744.579365354
1528,375319119.31799436
1577,0.0
2,7, 1, 7, 0,10, 0.00,60.00,Monday
16,6258234.970652487
1528,355959632.49787146
1577,0.0
2,7, 1, 7, 0,11, 0.00,60.00,Monday
16,5919177.924040781
1528,336367992.97895706
1577,0.0
2,7, 1, 7, 0,12, 0.00,60.00,Monday
16,3189789.34720611
1528,316702337.60084105
1577,0.0
2,7, 1, 7, 0,13, 0.00,60.00,Monday
16,5919713.161602952
1528,297124804.9704392
1577,0.0
2,7, 1, 7, 0,14, 0.00,60.00,Monday
16,3189789.34720611
1528,286292166.1413536
1577,0.0
2,7, 1, 7, 0,15, 0.00,60.00,Monday
16,3189789.34720611
1528,281983303.35889465
1577,0.0
2,7, 1, 7, 0,16, 0.00,60.00,Monday
16,5919576.039379323
1528,277337203.2387657
1577,0.0
2,7, 1, 7, 0,17, 0.00,60.00,Monday
16,3189789.34720611
1528,273178014.23456264
1577,0.0
2,7, 1, 7, 0,18, 0.00,60.00,Monday
16,6122983.411719291
1528,268325375.54117668
1577,0.0
2,7, 1, 7, 0,19, 0.00,60.00,Monday
16,6123430.440180168
1528,263896450.2197079
1577,0.0
2,7, 1, 7, 0,20, 0.00,60.00,Monday
16,6123339.625601921
1528,375576802.22232556
1577,0.0
2,7, 1, 7, 0,21, 0.00,60.00,Monday
16,3189789.34720611
1528,369088250.64832914
1577,0.0
2,7, 1, 7, 0,22, 0.00,60.00,Monday
16,6092030.701580426
1528,362620409.67300856
1577,0.0
2,7, 1, 7, 0,23, 0.00,60.00,Monday
16,6092208.433107218
1528,355468423.4793136
1577,0.0
2,7, 1, 7, 0,24, 0.00,60.00,Monday
16,5644783.565164689
1528,349636005.25410604
1577,0.0
2,8, 1, 8, 0, 1, 0.00,60.00,Tuesday
16,3598110.4826375972
1528,344438101.96856076
1577,0.0
2,8, 1, 8, 0, 2, 0.00,60.00,Tuesday
16,3189789.34720611
1528,342471495.76703584
1577,0.0
2,8, 1, 8, 0, 3, 0.00,60.00,Tuesday
16,3189789.34720611
1528,342005131.30688053
1577,0.0
2,8, 1, 8, 0, 4, 0.00,60.00,Tuesday
16,5844488.744719572
1528,342821162.0402704
1577,0.0
2,8, 1, 8, 0, 5, 0.00,60.00,Tuesday
16,3189789.34720611
1528,343167530.54548305
1577,0.0
2,8, 1, 8, 0, 6, 0.00,60.00,Tuesday
16,3189789.34720611
1528,342797487.5105727
1577,0.0
2,8, 1, 8, 0, 7, 0.00,60.00,Tuesday
16,6091781.171140403
1528,343980231.2517377
1577,0.0
2,8, 1, 8, 0, 8, 0.00,60.00,Tuesday
16,6092468.7236713525
1528,218791885.72524583
1577,0.0
2,8, 1, 8, 0, 9, 0.00,60.00,Tuesday
16,6076030.8640717175
1528,208704590.80400106
1577,0.0
2,8, 1, 8, 0,10, 0.00,60.00,Tuesday
16,5355219.390653981
1528,196923252.26882184
1577,0.0
2,8, 1, 8, 0,11, 0.00,60.00,Tuesday
16,4153648.4948028997
1528,186533833.10256323
1577,0.0
2,8, 1, 8, 0,12, 0.00,60.00,Tuesday
16,3189789.34720611
1528,181003630.46072447
1577,0.0
2,8, 1, 8, 0,13, 0.00,60.00,Tuesday
16,5919337.946526101
1528,176335553.7867235
1577,0.0
2,8, 1, 8, 0,14, 0.00,60.00,Tuesday
16,3189789.34720611
1528,173234147.1056202
1577,0.0
2,8, 1, 8, 0,15, 0.00,60.00,Tuesday
16,5919692.111780057
1528,165575784.40045702
1577,0.0
2,8, 1, 8, 0,16, 0.00,60.00,Tuesday
16,3189789.34720611
1528,162612115.3732252
1577,0.0
2,8, 1, 8, 0,17, 0.00,60.00,Tuesday
16,5484177.295739155
1528,164568181.02233317
1577,0.0
2,8, 1, 8, 0,18, 0.00,60.00,Tuesday
16,3658087.9934996935
1528,159437568.3411525
1577,0.0
2,8, 1, 8, 0,19, 0.00,60.00,Tuesday
16,6122697.497854473
1528,152427268.47290325
1577,0.0
2,8, 1, 8, 0,20, 0.00,60.00,Tuesday
16,6122791.825831698
1528,259330002.69015172
1577,0.0
2,8, 1, 8, 0,21, 0.00,60.00,Tuesday
16,6123237.064934505
1528,246353202.0840947
1577,0.0
2,8, 1, 8, 0,22, 0.00,60.00,Tuesday
16,3189789.34720611
1528,231999677.76951197
1577,0.0
2,8, 1, 8, 0,23, 0.00,60.00,Tuesday
16,6092015.005838508
1528,224155923.77090126
1577,0.0
2,8, 1, 8, 0,24, 0.00,60.00,Tuesday
16,6092229.249286283
1528,225250173.21051693
1577,0.0
2,9, 1, 9, 0, 1, 0.00,60.00,Wednesday
16,3189789.34720611
1528,228573747.48457655
1577,0.0
2,9, 1, 9, 0, 2, 0.00,60.00,Wednesday
16,3189789.34720611
1528,239036514.49181548
1577,0.0
2,9, 1, 9, 0, 3, 0.00,60.00,Wednesday
16,5844241.995874481
1528,252658763.78453085
1577,0.0
2,9, 1, 9, 0, 4, 0.00,60.00,Wednesday
16,3189789.34720611
1528,256161245.50961426
1577,0.0
2,9, 1, 9, 0, 5, 0.00,60.00,Wednesday
16,3189789.34720611
1528,244549197.4958876
1577,0.0
2,9, 1, 9, 0, 6, 0.00,60.00,Wednesday
16,3189789.34720611
1528,232052025.67452866
1577,0.0
2,9, 1, 9, 0, 7, 0.00,60.00,Wednesday
16,6092427.044518588
1528,228148445.06926817
1577,0.0
2,9, 1, 9, 0, 8, 0.00,60.00,Wednesday
16,6091764.7436676435
1528,120777083.43898882
1577,0.0
2,9, 1, 9, 0, 9, 0.00,60.00,Wednesday
16,6258744.980034861
1528,120121879.3440502
1577,0.0
2,9, 1, 9, 0,10, 0.00,60.00,Wednesday
16,6258235.108031169
1528,111078368.48395498
1577,0.0
2,9, 1, 9, 0,11, 0.00,60.00,Wednesday
16,3189789.34720611
1528,101296112.44145769
1577,0.0
2,9, 1, 9, 0,12, 0.00,60.00,Wednesday
16,5919127.631333293
1528,90660759.85639423
1577,0.0
2,9, 1, 9, 0,13, 0.00,60.00,Wednesday
16,3189789.34720611
1528,80017264.08006564
1577,0.0
2,9, 1, 9, 0,14, 0.00,60.00,Wednesday
16,3189789.34720611
1528,78504239.86460346
1577,0.0
2,9, 1, 9, 0,15, 0.00,60.00,Wednesday
16,5919723.756207209
1528,81279571.82672545
1577,0.0
2,9, 1, 9, 0,16, 0.00,60.00,Wednesday
16,3189789.34720611
1528,84434341.34702486
1577,0.0
2,9, 1, 9, 0,17, 0.00,60.00,Wednesday
16,5919650.114521841
1528,88194498.89045599
1577,0.0
2,9, 1, 9, 0,18, 0.00,60.00,Wednesday
16,5590807.462320974
1528,90805108.80531076
1577,0.0
2,9, 1, 9, 0,19, 0.00,60.00,Wednesday
16,3721898.893885254
1528,93918053.01851122
1577,0.0
2,9, 1, 9, 0,20, 0.00,60.00,Wednesday
16,6122553.965856327
1528,206937449.17109397
1577,0.0
2,9, 1, 9, 0,21, 0.00,60.00,Wednesday
16,6122816.122213587
1528,184121529.82291564
1577,0.0
2,9, 1, 9, 0,22, 0.00,60.00,Wednesday
16,6092420.485195448
1528,164892722.5733518
1577,0.0
2,9, 1, 9, 0,23, 0.00,60.00,Wednesday
16,3189789.34720611
1528,156589818.9160139
1577,0.0
2,9, 1, 9, 0,24, 0.00,60.00,Wednesday
16,6091770.001919843
1528,153947215.76647112
1577,0.0
2,10, 1,10, 0, 1, 0.00,60.00,Thursday
16,3189789.34720611
1528,156898323.71783292
1577,0.0
2,10, 1,10, 0, 2, 0.00,60.00,Thursday
16,5844443.506563421
1528,164107847.6677658
1577,0.0
2,10, 1,10, 0, 3, 0.00,60.00,Thursday
16,3189789.34720611
1528,186470027.91694194
1577,0.0
2,10, 1,10, 0, 4, 0.00,60.00,Thursday
16,3189789.34720611
1528,197776763.52592826
1577,0.0
2,10, 1,10, 0, 5, 0.00,60.00,Thursday
16,3189789.34720611
1528,198599502.43574473
1577,0.0
2,10, 1,10, 0, 6, 0.00,60.00,Thursday
16,5844111.855082942
1528,198983779.7778764
1577,0.0
2,10, 1,10, 0, 7, 0.00,60.00,Thursday
16,3417832.094663368
1528,199587478.74123082
1577,0.0
2,10, 1,10, 0, 8, 0.00,60.00,Thursday
16,5863364.225861285
1528,92674307.58593285
1577,0.0
2,10, 1,10, 0, 9, 0.00,60.00,Thursday
16,6258971.125934083
1528,101918148.51524991
1577,0.0
2,10, 1,10, 0,10, 0.00,60.00,Thursday
16,6258824.427807538
1528,110103146.35660908
1577,0.0
2,10, 1,10, 0,11, 0.00,60.00,Thursday
16,4617413.211409557
1528,96450595.31611156
1577,0.0
2,10, 1,10, 0,12, 0.00,60.00,Thursday
16,4491464.028321918
1528,86782507.8361708
1577,0.0
2,10, 1,10, 0,13, 0.00,60.00,Thursday
16,3189789.34720611
1528,89430040.50243145
1577,0.0
2,10, 1,10, 0,14, 0.00,60.00,Thursday
16,5919566.905982384
1528,89984197.42251416
1577,0.0
2,10, 1,10, 0,15, 0.00,60.00,Thursday
16,3189789.34720611
1528,91878952.59294765
1577,0.0
2,10, 1,10, 0,16, 0.00,60.00,Thursday
16,5919671.891822506
1528,96899838.16432129
1577,0.0
2,10, 1,10, 0,17, 0.00,60.00,Thursday
16,3189789.34720611
1528,102514287.72436866
1577,0.0
2,10, 1,10, 0,18, 0.00,60.00,Thursday
16,6122910.012388438
1528,117153823.69715759
1577,0.0
2,10, 1,10, 0,19, 0.00,60.00,Thursday
16,6123446.099252819
1528,122461806.06173871
1577,0.0
2,10, 1,10, 0,20, 0.00,60.00,Thursday
16,3189789.34720611
1528,234985405.53429824
1577,0.0
2,10, 1,10, 0,21, 0.00,60.00,Thursday
16,6123355.300320644
1528,236347818.04062653
1577,0.0
2,10, 1,10, 0,22, 0.00,60.00,Thursday
16,6091938.166162925
1528,238768774.4309016
1577,0.0
2,10, 1,10, 0,23, 0.00,60.00,Thursday
16,6092350.191402054
1528,240495827.66705027
1577,0.0
2,10, 1,10, 0,24, 0.00,60.00,Thursday
16,3189789.34720611
1528,230779816.23592556
1577,0.0
2,11, 1,11, 0, 1, 0.00,60.00,Friday
16,5844440.713159043
1528,222826431.9363572
1577,0.0
2,11, 1,11, 0, 2, 0.00,60.00,Friday
16,3189789.34720611
1528,225294483.22625816
1577,0.0
2,11, 1,11, 0, 3, 0.00,60.00,Friday
16,3189789.34720611
1528,230730757.81283027
1577,0.0
2,11, 1,11, 0, 4, 0.00,60.00,Friday
16,3649247.743737632
1528,236240187.73592466
1577,0.0
2,11, 1,11, 0, 5, 0.00,60.00,Friday
16,5384696.560518663
1528,239489320.33159742
1577,0.0
2,11, 1,11, 0, 6, 0.00,60.00,Friday
16,3189789.34720611
1528,237891889.09698665
1577,0.0
2,11, 1,11, 0, 7, 0.00,60.00,Friday
16,6092399.6302240845
1528,236414549.2001255
1577,0.0
2,11, 1,11, 0, 8, 0.00,60.00,Friday
16,4362994.408263423
1528,123868827.48361602
1577,0.0
2,11, 1,11, 0, 9, 0.00,60.00,Friday
16,5354051.175228296
1528,131790147.35866338
1577,0.0
2,11, 1,11, 0,10, 0.00,60.00,Friday
16,5923425.686931727
1528,132713142.59055874
1577,0.0
2,11, 1,11, 0,11, 0.00,60.00,Friday
16,5919649.224212211
1528,114119212.99621376
1577,0.0
2,11, 1,11, 0,12, 0.00,60.00,Friday
16,3189789.34720611
1528,113414211.8648499
1577,0.0
2,11, 1,11, 0,13, 0.00,60.00,Friday
16,5919096.395460229
1528,114707257.05287758
1577,0.0
2,11, 1,11, 0,14, 0.00,60.00,Friday
16,3189789.34720611
1528,115805930.19377092
1577,0.0
2,11, 1,11, 0,15, 0.00,60.00,Friday
16,5919455.928966252
1528,109193394.6037949
1577,0.0
2,11, 1,11, 0,16, 0.00,60.00,Friday
16,3189789.34720611
1528,121375831.72513062
1577,0.0
2,11, 1,11, 0,17, 0.00,60.00,Friday
16,3189789.34720611
1528,135651841.38867724
1577,0.0
2,11, 1,11, 0,18, 0.00,60.00,Friday
16,6123394.043379787
1528,133464963.17897451
1577,0.0
2,11, 1,11, 0,19, 0.00,60.00,Friday
16,6123303.25177124
1528,133272660.67234226
1577,0.0
2,11, 1,11, 0,20, 0.00,60.00,Friday
16,6122855.70234097
1528,247303835.753651
1577,0.0
2,11, 1,11, 0,21, 0.00,60.00,Friday
16,4724646.471578993
1528,241722365.94633633
1577,0.0
2,11, 1,11, 0,22, 0.00,60.00,Friday
16,4572898.3409201205
1528,239733710.9198098
1577,0.0
2,11, 1,11, 0,23, 0.00,60.00,Friday
16,6092438.707702842
1528,249216520.6133546
1577,0.0
2,11, 1,11, 0,24, 0.00,60.00,Friday
16,6091760.612430983
1528,244524076.99567595
1577,0.0
2,12, 1,12, 0, 1, 0.00,60.00,Saturday
16,3189789.34720611
1528,235515000.87493354
1577,0.0
2,12, 1,12, 0, 2, 0.00,60.00,Saturday
16,3189789.34720611
1528,231595272.77214068
1577,0.0
2,12, 1,12, 0, 3, 0.00,60.00,Saturday
16,3243027.5161019843
1528,227787108.76378545
1577,0.0
2,12, 1,12, 0, 4, 0.00,60.00,Saturday
16,5791207.938203273
1528,221693104.24996525
1577,0.0
2,12, 1,12, 0, 5, 0.00,60.00,Saturday
16,3189789.34720611
1528,215387666.97925308
1577,0.0
2,12, 1,12, 0, 6, 0.00,60.00,Saturday
16,3189789.34720611
1528,213290713.45134497
1577,0.0
2,12, 1,12, 0, 7, 0.00,60.00,Saturday
16,6092080.992034921
1528,214268799.28853527
1577,0.0
2,12, 1,12, 0, 8, 0.00,60.00,Saturday
16,6092148.699090183
1528,99443468.18600202
1577,0.0
2,12, 1,12, 0, 9, 0.00,60.00,Saturday
16,6258380.011536256
1528,102457468.71691717
1577,0.0
2,12, 1,12, 0,10, 0.00,60.00,Saturday
16,6258988.316272655
1528,104754187.36660372
1577,0.0
2,12, 1,12, 0,11, 0.00,60.00,Saturday
16,3189789.34720611
1528,116841794.13825233
1577,0.0
2,12, 1,12, 0,12, 0.00,60.00,Saturday
16,3189789.34720611
1528,120750454.13172892
1577,0.0
2,12, 1,12, 0,13, 0.00,60.00,Saturday
16,5919727.780200288
1528,114450660.0518738
1577,0.0
2,12, 1,12, 0,14, 0.00,60.00,Saturday
16,3189789.34720611
1528,117877654.87871322
1577,0.0
2,12, 1,12, 0,15, 0.00,60.00,Saturday
16,5919654.141589759
1528,111419537.234037
1577,0.0
2,12, 1,12, 0,16, 0.00,60.00,Saturday
16,3189789.34720611
1528,109255984.74343331
1577,0.0
2,12, 1,12, 0,17, 0.00,60.00,Saturday
16,5919107.189063722
1528,115437230.57021017
1577,0.0
2,12, 1,12, 0,18, 0.00,60.00,Saturday
16,3189789.34720611
1528,124910661.10980666
1577,0.0
2,12, 1,12, 0,19, 0.00,60.00,Saturday
16,6123401.696565637
1528,130610630.52600582
1577,0.0
2,12, 1,12, 0,20, 0.00,60.00,Saturday
16,6123310.858165208
1528,244414145.19603527
1577,0.0
2,12, 1,12, 0,21, 0.00,60.00,Saturday
16,6122885.734192364
1528,242889165.49304974
1577,0.0
2,12, 1,12, 0,22, 0.00,60.00,Saturday
16,3656647.843459896
1528,242690213.1798786
1577,0.0
2,12, 1,12, 0,23, 0.00,60.00,Saturday
16,5625261.629048102
1528,248200141.64322534
1577,0.0
2,12, 1,12, 0,24, 0.00,60.00,Saturday
16,6092108.344280874
1528,256916279.3431547
1577,0.0
2,13, 1,13, 0, 1, 0.00,60.00,Sunday
16,3189789.34720611
1528,261963175.36908692
1577,0.0
2,13, 1,13, 0, 2, 0.00,60.00,Sunday
16,3189789.34720611
1528,263157555.37222707
1577,0.0
2,13, 1,13, 0, 3, 0.00,60.00,Sunday
16,5844422.009339143
1528,258102914.18563372
1577,0.0
2,13, 1,13, 0, 4, 0.00,60.00,Sunday
16,3189789.34720611
1528,261007177.5283974
1577,0.0
2,13, 1,13, 0, 5, 0.00,60.00,Sunday
16,3189789.34720611
1528,268038515.83512738
1577,0.0
2,13, 1,13, 0, 6, 0.00,60.00,Sunday
16,5844258.582950095
1528,273667787.18007475
1577,0.0
2,13, 1,13, 0, 7, 0.00,60.00,Sunday
16,3189789.34720611
1528,273311943.9668514
1577,0.0
2,13, 1,13, 0, 8, 0.00,60.00,Sunday
16,6091685.61798968
1528,152324794.70794415
1577,0.0
2,13, 1,13, 0, 9, 0.00,60.00,Sunday
16,6258184.698085038
1528,157108250.87299183
1577,0.0
2,13, 1,13, 0,10, 0.00,60.00,Sunday
16,6258320.820983533
1528,153844062.84778762
1577,0.0
2,13, 1,13, 0,11, 0.00,60.00,Sunday
16,3189789.34720611
1528,123164405.85050009
1577,0.0
2,13, 1,13, 0,12, 0.00,60.00,Sunday
16,5919535.963306254
1528,101683483.61591497
1577,0.0
2,13, 1,13, 0,13, 0.00,60.00,Sunday
16,3189789.34720611
1528,106757251.89460601
1577,0.0
2,13, 1,13, 0,14, 0.00,60.00,Sunday
16,5919674.284872729
1528,112044729.81209752
1577,0.0
2,13, 1,13, 0,15, 0.00,60.00,Sunday
16,3189789.34720611
1528,113601856.63482352
1577,0.0
2,13, 1,13, 0,16, 0.00,60.00,Sunday
16,5186282.899202213
1528,114667410.16602528
1577,0.0
2,13, 1,13, 0,17, 0.00,60.00,Sunday
16,3922703.219387837
1528,114940505.22740085
1577,0.0
2,13, 1,13, 0,18, 0.00,60.00,Sunday
16,6122794.4527376965
1528,116301150.90908131
1577,0.0
2,13, 1,13, 0,19, 0.00,60.00,Sunday
16,4576331.683146264
1528,117160103.95208268
1577,0.0
2,13, 1,13, 0,20, 0.00,60.00,Sunday
16,4735883.484169155
1528,231395528.58211118
1577,0.0
2,13, 1,13, 0,21, 0.00,60.00,Sunday
16,6122947.983412014
1528,227974148.812836
1577,0.0
2,13, 1,13, 0,22, 0.00,60.00,Sunday
16,6092422.956394479
1528,226080388.92990017
1577,0.0
2,13, 1,13, 0,23, 0.00,60.00,Sunday
16,4570030.9373453725
1528,224275279.05530885
1577,0.0
2,13, 1,13, 0,24, 0.00,60.00,Sunday
16,4711526.168507957
1528,222468734.9617577
1577,0.0
2,14, 1,14, 0, 1, 0.00,60.00,Monday
16,5698976.868541755
1528,221255166.48545083
1577,0.0
2,14, 1,14, 0, 2, 0.00,60.00,Monday
16,3335132.6053652135
1528,219650861.45086706
1577,0.0
2,14, 1,14, 0, 3, 0.00,60.00,Monday
16,3189789.34720611
1528,217402660.43771255
1577,0.0
2,14, 1,14, 0, 4, 0.00,60.00,Monday
16,3189789.34720611
1528,216373689.77758572
1577,0.0
2,14, 1,14, 0, 5, 0.00,60.00,Monday
16,5844353.412485372
1528,214904851.9311049
1577,0.0
2,14, 1,14, 0, 6, 0.00,60.00,Monday
16,3189789.34720611
1528,212755276.581505
1577,0.0
2,14, 1,14, 0, 7, 0.00,60.00,Monday
16,6092270.802737792
1528,211564260.73959845
1577,0.0
2,14, 1,14, 0, 8, 0.00,60.00,Monday
16,3189789.34720611
1528,94970630.49032013
1577,0.0
2,14, 1,14, 0, 9, 0.00,60.00,Monday
16,6258661.3157250695
1528,93228448.97109431
1577,0.0
2,14, 1,14, 0,10, 0.00,60.00,Monday
16,6258209.239219099
1528,90628775.44835895
1577,0.0
2,14, 1,14, 0,11, 0.00,60.00,Monday
16,5919285.591511644
1528,87661372.72494455
1577,0.0
2,14, 1,14, 0,12, 0.00,60.00,Monday
16,3189789.34720611
1528,84509729.95057212
1577,0.0
2,14, 1,14, 0,13, 0.00,60.00,Monday
16,5919697.945508007
1528,81239765.7310368
1577,0.0
2,14, 1,14, 0,14, 0.00,60.00,Monday