Program Version,EnergyPlus, Version 23.2.0-7636e6b3e9, YMD=2025.01.28 12:57
1,5,Environment Title[],Latitude[deg],Longitude[deg],Time Zone[],Elevation[m]
2,8,Day of Simulation[],Month[],Day of Month[],DST Indicator[1=yes 0=no],Hour[],StartMinute[],EndMinute[],DayType
3,5,Cumulative Day of Simulation[],Month[],Day of Month[],DST Indicator[1=yes 0=no],DayType  ! When Daily Report Variables Requested
4,2,Cumulative Days of Simulation[],Month[]  ! When Monthly Report Variables Requested
5,1,Cumulative Days of Simulation[] ! When Run Period Report Variables Requested
6,1,Calendar Year of Simulation[] ! When Annual Report Variables Requested
7,7,Environment,Site Outdoor Air Drybulb Temperature [C] !Daily [Value,Min,Hour,Minute,Max,Hour,Minute]
8,7,Environment,Site Outdoor Air Dewpoint Temperature [C] !Daily [Value,Min,Hour,Minute,Max,Hour,Minute]
9,7,Environment,Site Outdoor Air Wetbulb Temperature [C] !Daily [Value,Min,Hour,Minute,Max,Hour,Minute]
10,7,Environment,Site Diffuse Solar Radiation Rate per Area [W/m2] !Daily [Value,Min,Hour,Minute,Max,Hour,Minute]
11,7,Environment,Site Direct Solar Radiation Rate per Area [W/m2] !Daily [Value,Min,Hour,Minute,Max,Hour,Minute]
12,7,Environment,Site Solar Azimuth Angle [deg] !Daily [Value,Min,Hour,Minute,Max,Hour,Minute]
13,7,Environment,Site Solar Altitude Angle [deg] !Daily [Value,Min,Hour,Minute,Max,Hour,Minute]
2844,7,MYDHW_0_WATERHEATER,Water Heater Heating Energy [J] !Daily [Value,Min,Hour,Minute,Max,Hour,Minute]
2983,7,SCENARIO_1_WATERHEATER,Water Heater Heating Energy [J] !Daily [Value,Min,Hour,Minute,Max,Hour,Minute]
1528,1,Heating:EnergyTransfer [J] !Hourly
1577,1,Cooling:EnergyTransfer [J] !Hourly
16,1,Electricity:Facility [J] !Hourly
End of Data Dictionary
1,RUN PERIOD 1,  52.46,   5.52,   1.00,  -3.90
2,1, 1, 1, 0, 1, 0.00,60.00,Tuesday
16,3189789.34720611
1528,197355020.88017458
1577,0.0
2,1, 1, 1, 0, 2, 0.00,60.00,Tuesday
16,3189789.34720611
1528,189548893.03649604
1577,0.0
2,1, 1, 1, 0, 3, 0.00,60.00,Tuesday
16,3189789.34720611
1528,192545164.5726829
1577,0.0
2,1, 1, 1, 0, 4, 0.00,60.00,Tuesday
16,5844247.583268721
1528,195122538.56948805
1577,0.0
2,1, 1, 1, 0, 5, 0.00,60.00,Tuesday
16,3189789.34720611
1528,197036893.85184813
1577,0.0
2,1, 1, 1, 0, 6, 0.00,60.00,Tuesday
16,3189789.34720611
1528,200104361.92928922
1577,0.0
2,1, 1, 1, 0, 7, 0.00,60.00,Tuesday
16,6091810.279464114
1528,203651166.11114073
1577,0.0
2,1, 1, 1, 0, 8, 0.00,60.00,Tuesday
16,6092484.619537311
1528,119000870.92155404
1577,0.0
2,1, 1, 1, 0, 9, 0.00,60.00,Tuesday
16,6178277.185372682
1528,128660121.71089742
1577,0.0
2,1, 1, 1, 0,10, 0.00,60.00,Tuesday
16,5355359.751897322
1528,128624561.46518496
1577,0.0
2,1, 1, 1, 0,11, 0.00,60.00,Tuesday
16,4062760.1017991034
1528,132412956.735955
1577,0.0
2,1, 1, 1, 0,12, 0.00,60.00,Tuesday
16,3189789.34720611
1528,139976210.8291651
1577,0.0
2,1, 1, 1, 0,13, 0.00,60.00,Tuesday
16,5919288.937317412
1528,143776313.09350932
1577,0.0
2,1, 1, 1, 0,14, 0.00,60.00,Tuesday
16,3189789.34720611
1528,147248449.4591766
1577,0.0
2,1, 1, 1, 0,15, 0.00,60.00,Tuesday
16,5919697.551141635
1528,148984673.55335978
1577,0.0
2,1, 1, 1, 0,16, 0.00,60.00,Tuesday
16,3189789.34720611
1528,152786786.7503017
1577,0.0
2,1, 1, 1, 0,17, 0.00,60.00,Tuesday
16,5575096.269159684
1528,150661210.51214552
1577,0.0
2,1, 1, 1, 0,18, 0.00,60.00,Tuesday
16,3560324.425322629
1528,144765518.7085989
1577,0.0
2,1, 1, 1, 0,19, 0.00,60.00,Tuesday
16,6122711.162122825
1528,138377440.23503155
1577,0.0
2,1, 1, 1, 0,20, 0.00,60.00,Tuesday
16,6122759.371672347
1528,219402371.9714569
1577,0.0
2,1, 1, 1, 0,21, 0.00,60.00,Tuesday
16,6123158.318921349
1528,207968422.11026773
1577,0.0
2,1, 1, 1, 0,22, 0.00,60.00,Tuesday
16,3189789.34720611
1528,202481039.96777934
1577,0.0
2,1, 1, 1, 0,23, 0.00,60.00,Tuesday
16,6092078.234496659
1528,207644060.71739987
1577,0.0
2,1, 1, 1, 0,24, 0.00,60.00,Tuesday
16,6092151.452639498
1528,213646369.67509148
1577,0.0
3,1, 1, 1, 0,Tuesday
7,2.891666666666666,1.4,16,60,4.2, 1,60
8,-0.03749999999999998,-2.5,10,60,2.1,24,60
9,1.854739388525906,0.4001495373206364,13,60,3.0998073170807516, 1,60
10,17.307291666666668,0.0, 1,15,86.0,12,30
11,26.854166666666668,0.0, 1,15,152.0,10,30
12,171.9210012821981,1.7466514206994332, 1,45,341.00180793165543,24,60
13,-20.325946072972584,-60.625898049216175, 1,45,14.446671545683287,13,45
2844,33574828.53243748,0.0, 1,15,2689639.0543499156, 9,60
2983,0.0,0.0, 1,15,0.0, 1,15
2,2, 1, 2, 0, 1, 0.00,60.00,Wednesday
16,3189789.34720611
1528,216630493.295018
1577,0.0
2,2, 1, 2, 0, 2, 0.00,60.00,Wednesday
16,3189789.34720611
1528,212028597.23162878
1577,0.0
2,2, 1, 2, 0, 3, 0.00,60.00,Wednesday
16,5844066.831318397
1528,210854403.91096163
1577,0.0
2,2, 1, 2, 0, 4, 0.00,60.00,Wednesday
16,3189789.34720611
1528,215696283.66674638
1577,0.0
2,2, 1, 2, 0, 5, 0.00,60.00,Wednesday
16,3189789.34720611
1528,207443795.08888477
1577,0.0
2,2, 1, 2, 0, 6, 0.00,60.00,Wednesday
16,3189789.34720611
1528,201276051.9201637
1577,0.0
2,2, 1, 2, 0, 7, 0.00,60.00,Wednesday
16,6092438.852088824
1528,197626778.39260677
1577,0.0
2,2, 1, 2, 0, 8, 0.00,60.00,Wednesday
16,6091760.606501572
1528,99917405.30829789
1577,0.0
2,2, 1, 2, 0, 9, 0.00,60.00,Wednesday
16,6258810.892731354
1528,98026176.90137304
1577,0.0
2,2, 1, 2, 0,10, 0.00,60.00,Wednesday
16,6258258.417913185
1528,100156925.99877334
1577,0.0
2,2, 1, 2, 0,11, 0.00,60.00,Wednesday
16,3189789.34720611
1528,102617771.46165499
1577,0.0
2,2, 1, 2, 0,12, 0.00,60.00,Wednesday
16,5919096.431000058
1528,112863562.87279129
1577,0.0
2,2, 1, 2, 0,13, 0.00,60.00,Wednesday
16,3189789.34720611
1528,116480834.65664399
1577,0.0
2,2, 1, 2, 0,14, 0.00,60.00,Wednesday
16,3210164.3162177242
1528,117809192.06349505
1577,0.0
2,2, 1, 2, 0,15, 0.00,60.00,Wednesday
16,5899340.331961492
1528,105923545.44780762
1577,0.0
2,2, 1, 2, 0,16, 0.00,60.00,Wednesday
16,3189789.34720611
1528,101758618.15884802
1577,0.0
2,2, 1, 2, 0,17, 0.00,60.00,Wednesday
16,5919661.363237141
1528,106731489.7943602
1577,0.0
2,2, 1, 2, 0,18, 0.00,60.00,Wednesday
16,5688286.480546456
1528,113145233.20912729
1577,0.0
2,2, 1, 2, 0,19, 0.00,60.00,Wednesday
16,3624475.2615996716
1528,128986617.2050005
1577,0.0
2,2, 1, 2, 0,20, 0.00,60.00,Wednesday
16,6122543.046299528
1528,222416876.07400626
1577,0.0
2,2, 1, 2, 0,21, 0.00,60.00,Wednesday
16,6122779.831305433
1528,214633821.0825243
1577,0.0
2,2, 1, 2, 0,22, 0.00,60.00,Wednesday
16,6092432.306520829
1528,210658414.3137614
1577,0.0
2,2, 1, 2, 0,23, 0.00,60.00,Wednesday
16,3189789.34720611
1528,214228872.2403518
1577,0.0
2,2, 1, 2, 0,24, 0.00,60.00,Wednesday
16,6091762.025002927
1528,220320210.98655635
1577,0.0
3,2, 1, 2, 0,Wednesday
7,3.686458333333334,2.7,19,60,4.7,15,60
8,0.859375,-2.5,24,60,3.0, 8,60
9,2.7411140405471186,1.1746816380023941, 1,60,3.8128607493951674, 8,60
10,16.630208333333332,0.0, 1,15,76.0,12,30
11,62.854166666666664,0.0, 1,15,310.0,15,30
12,171.8131188905313,1.5259563868488346, 1,45,340.83120702053344,24,60
13,-20.25473323294449,-60.545572589949266, 1,45,14.530053212951353,13,45
2844,33650133.10753765,0.0, 1,15,2756890.58129884, 9,45
2983,0.0,0.0, 1,15,0.0, 1,15
2,3, 1, 3, 0, 1, 0.00,60.00,Thursday
16,3189789.34720611
1528,231386664.93452764
1577,0.0
2,3, 1, 3, 0, 2, 0.00,60.00,Thursday
16,5844454.501194306
1528,238262737.44619876
1577,0.0
2,3, 1, 3, 0, 3, 0.00,60.00,Thursday
16,3189789.34720611
1528,238943615.51516828
1577,0.0
2,3, 1, 3, 0, 4, 0.00,60.00,Thursday
16,3189789.34720611
1528,244893072.29815114
1577,0.0
2,3, 1, 3, 0, 5, 0.00,60.00,Thursday
16,3189789.34720611
1528,244926959.91332623
1577,0.0
2,3, 1, 3, 0, 6, 0.00,60.00,Thursday
16,5843979.604948616
1528,248801070.75747824
1577,0.0
2,3, 1, 3, 0, 7, 0.00,60.00,Thursday
16,3522932.0086689624
1528,256004325.25269866
1577,0.0
2,3, 1, 3, 0, 8, 0.00,60.00,Thursday
16,5758270.397824634
1528,166597598.91320953
1577,0.0
2,3, 1, 3, 0, 9, 0.00,60.00,Thursday
16,6258983.455802057
1528,172911899.8955794
1577,0.0
2,3, 1, 3, 0,10, 0.00,60.00,Thursday
16,6258836.778658252
1528,168662916.1092059
1577,0.0
2,3, 1, 3, 0,11, 0.00,60.00,Thursday
16,4805789.474297116
1528,152993984.98821795
1577,0.0
2,3, 1, 3, 0,12, 0.00,60.00,Thursday
16,4303100.732184436
1528,143898313.55532235
1577,0.0
2,3, 1, 3, 0,13, 0.00,60.00,Thursday
16,3189789.34720611
1528,141647084.8193329
1577,0.0
2,3, 1, 3, 0,14, 0.00,60.00,Thursday
16,5919430.142575709
1528,148325730.27732143
1577,0.0
2,3, 1, 3, 0,15, 0.00,60.00,Thursday
16,3189789.34720611
1528,150576823.10840124
1577,0.0
2,3, 1, 3, 0,16, 0.00,60.00,Thursday
16,5919683.166864676
1528,165112481.060044
1577,0.0
2,3, 1, 3, 0,17, 0.00,60.00,Thursday
16,3189789.34720611
1528,182101527.68275014
1577,0.0
2,3, 1, 3, 0,18, 0.00,60.00,Thursday
16,6122861.259535499
1528,193923134.30636558
1577,0.0
2,3, 1, 3, 0,19, 0.00,60.00,Thursday
16,6123385.551637812
1528,205712300.62973753
1577,0.0
2,3, 1, 3, 0,20, 0.00,60.00,Thursday
16,3189789.34720611
1528,297977057.6652056
1577,0.0
2,3, 1, 3, 0,21, 0.00,60.00,Thursday
16,6123367.218237253
1528,286316743.05506766
1577,0.0
2,3, 1, 3, 0,22, 0.00,60.00,Thursday
16,6091991.321566958
1528,276661698.0359093
1577,0.0
2,3, 1, 3, 0,23, 0.00,60.00,Thursday
16,6092262.869163906
1528,265645081.62960523
1577,0.0
2,3, 1, 3, 0,24, 0.00,60.00,Thursday
16,3189789.34720611
1528,255334181.90040904
1577,0.0
3,3, 1, 3, 0,Thursday
7,1.1666666666666665,-1.0,19,60,2.775, 1,15
8,-0.6007504992247794,-2.2,13,60,1.3,24,60
9,0.3890060654580482,-1.321738782587282,19,60,2.1129291271731074, 1,15
10,14.333333333333334,0.0, 1,15,65.0,13,30
11,122.921875,0.0, 1,15,558.0,13,30
12,171.70635220439564,1.3083254005832814, 1,45,340.6669445746221,24,60
13,-20.176959693862347,-60.45738645598138, 1,45,14.6208584194948,13,45
2844,33428239.44756169,0.0, 1,15,2762274.6977363527, 9,30
2983,0.0,0.0, 1,15,0.0, 1,15
2,4, 1, 4, 0, 1, 0.00,60.00,Friday
16,5844451.748620054
1528,291224669.0861226
1577,0.0
2,4, 1, 4, 0, 2, 0.00,60.00,Friday
16,3189789.34720611
1528,317683578.24383926
1577,0.0
2,4, 1, 4, 0, 3, 0.00,60.00,Friday
16,3189789.34720611
1528,321421235.7863794
1577,0.0
2,4, 1, 4, 0, 4, 0.00,60.00,Friday
16,3953505.875525982
1528,326426715.6212261
1577,0.0
2,4, 1, 4, 0, 5, 0.00,60.00,Friday
16,5080290.587996362
1528,330988531.817902
1577,0.0
2,4, 1, 4, 0, 6, 0.00,60.00,Friday
16,3189789.34720611
1528,334831479.72918296
1577,0.0
2,4, 1, 4, 0, 7, 0.00,60.00,Friday
16,6092411.489491284
1528,340215179.9015697
1577,0.0
2,4, 1, 4, 0, 8, 0.00,60.00,Friday
16,4468048.550607096
1528,241942105.9891748
1577,0.0
2,4, 1, 4, 0, 9, 0.00,60.00,Friday
16,5354065.105415303
1528,235466709.06211498
1577,0.0
2,4, 1, 4, 0,10, 0.00,60.00,Friday
16,5812247.95226007
1528,228258303.30185264
1577,0.0
2,4, 1, 4, 0,11, 0.00,60.00,Friday
16,5919665.744037077
1528,220792350.99354172
1577,0.0
2,4, 1, 4, 0,12, 0.00,60.00,Friday
16,3189789.34720611
1528,213279522.58238235
1577,0.0
2,4, 1, 4, 0,13, 0.00,60.00,Friday
16,5919149.878681108
1528,205792234.47978863
1577,0.0
2,4, 1, 4, 0,14, 0.00,60.00,Friday
16,3189789.34720611
1528,206768079.74602032
1577,0.0
2,4, 1, 4, 0,15, 0.00,60.00,Friday
16,5919290.2508240575
1528,212892777.0707656
1577,0.0
2,4, 1, 4, 0,16, 0.00,60.00,Friday
16,3189789.34720611
1528,219239589.8709695
1577,0.0
2,4, 1, 4, 0,17, 0.00,60.00,Friday
16,3189789.34720611
1528,226812061.73963225
1577,0.0
2,4, 1, 4, 0,18, 0.00,60.00,Friday
16,6123411.4660654925
1528,233664979.71566406
1577,0.0
2,4, 1, 4, 0,19, 0.00,60.00,Friday
16,6123320.687891247
1528,239717024.42243063
1577,0.0
2,4, 1, 4, 0,20, 0.00,60.00,Friday
16,6122927.691701356
1528,347753048.08119667
1577,0.0
2,4, 1, 4, 0,21, 0.00,60.00,Friday
16,4867304.607169496
1528,355705132.7621888
1577,0.0
2,4, 1, 4, 0,22, 0.00,60.00,Friday
16,4431753.430625232
1528,358919317.9558551
1577,0.0
2,4, 1, 4, 0,23, 0.00,60.00,Friday
16,6092454.620005364
1528,372037736.69855535
1577,0.0
2,4, 1, 4, 0,24, 0.00,60.00,Friday
16,6091765.952166144
1528,379921221.6285039
1577,0.0
3,4, 1, 4, 0,Friday
7,-2.370833333333333,-5.0,23,60,0.5999999999999999, 1,15
8,-3.617708333333334,-7.7,24,60,0.3750000000000001, 1,15
9,-2.8442852708335775,-5.828734757976214,24,60,0.4861570244684519, 1,15
10,14.375,0.0, 1,15,66.0,13,30
11,129.13541666666666,0.0, 1,15,576.0,13,30
12,171.60081020210077,1.0940828941618326, 1,45,340.50922888156305,24,60
13,-20.09265613455602,-60.36138875158809, 1,45,14.71905019080346,13,45
2844,35990682.06292097,0.0, 1,15,2640259.9069734444,18,15
2983,0.0,0.0, 1,15,0.0, 1,15
2,5, 1, 5, 0, 1, 0.00,60.00,Saturday
16,3189789.34720611
1528,378093083.8056426
1577,0.0
2,5, 1, 5, 0, 2, 0.00,60.00,Saturday
16,3189789.34720611
1528,378120470.2940825
1577,0.0
2,5, 1, 5, 0, 3, 0.00,60.00,Saturday
16,3650183.069105963
1528,379826130.06478226
1577,0.0
2,5, 1, 5, 0, 4, 0.00,60.00,Saturday
16,5383760.689840941
1528,381565303.598023
1577,0.0
2,5, 1, 5, 0, 5, 0.00,60.00,Saturday
16,3189789.34720611
1528,383330566.0678201
1577,0.0
2,5, 1, 5, 0, 6, 0.00,60.00,Saturday
16,3189789.34720611
1528,385119092.27545846
1577,0.0
2,5, 1, 5, 0, 7, 0.00,60.00,Saturday
16,6091997.640687155
1528,388663456.50201875
1577,0.0
2,5, 1, 5, 0, 8, 0.00,60.00,Saturday
16,6092253.351995731
1528,289021377.4630209
1577,0.0
2,5, 1, 5, 0, 9, 0.00,60.00,Saturday
16,6258331.096586556
1528,281077082.7187413
1577,0.0
2,5, 1, 5, 0,10, 0.00,60.00,Saturday
16,6258993.350215384
1528,272848944.11295795
1577,0.0
2,5, 1, 5, 0,11, 0.00,60.00,Saturday
16,3189789.34720611
1528,263882093.6824769
1577,0.0
2,5, 1, 5, 0,12, 0.00,60.00,Saturday
16,3341204.216328964
1528,254157111.81382287
1577,0.0
2,5, 1, 5, 0,13, 0.00,60.00,Saturday
16,5768188.011906402
1528,245710426.47260466
1577,0.0
2,5, 1, 5, 0,14, 0.00,60.00,Saturday
16,3189789.34720611
1528,244095456.63267845
1577,0.0
2,5, 1, 5, 0,15, 0.00,60.00,Saturday
16,5919669.204710003
1528,247422933.83714354
1577,0.0
2,5, 1, 5, 0,16, 0.00,60.00,Saturday
16,3189789.34720611
1528,250450175.0448678
1577,0.0
2,5, 1, 5, 0,17, 0.00,60.00,Saturday
16,5919167.2996141575
1528,252709770.58618328
1577,0.0
2,5, 1, 5, 0,18, 0.00,60.00,Saturday
16,3189789.34720611
1528,255955306.67471683
1577,0.0
2,5, 1, 5, 0,19, 0.00,60.00,Saturday
16,6123417.629489798
1528,258632384.23879033
1577,0.0
2,5, 1, 5, 0,20, 0.00,60.00,Saturday
16,6123326.806813927
1528,353120610.58147
1577,0.0
2,5, 1, 5, 0,21, 0.00,60.00,Saturday
16,6122956.2360126125
1528,351725529.477273
1577,0.0
2,5, 1, 5, 0,22, 0.00,60.00,Saturday
16,3796769.511985408
1528,350634850.01993054
1577,0.0
2,5, 1, 5, 0,23, 0.00,60.00,Saturday
16,5485051.4337953795
1528,348263919.0950768
1577,0.0
2,5, 1, 5, 0,24, 0.00,60.00,Saturday
16,6092207.553763114
1528,347601031.769839
1577,0.0
3,5, 1, 5, 0,Saturday
7,-4.088541666666665,-5.5, 7,60,-2.8,13,60
8,-7.080208333333332,-7.45, 1,15,-6.7, 1,60
9,-5.141229228510597,-6.135298049949361, 7,60,-4.298956651781032,13,60
10,14.5703125,0.0, 1,15,65.0,13,30
11,132.4921875,0.0, 1,15,603.0,13,30
12,171.49660012976298,0.8835410953785034, 1,45,340.35825202416595,24,60
13,-20.001856138640335,-60.257633494339274, 1,45,14.82458830946985,13,45
2844,33651762.79279836,0.0, 1,15,2753553.837567342,10,60
2983,0.0,0.0, 1,15,0.0, 1,15
2,6, 1, 6, 0, 1, 0.00,60.00,Sunday
16,3189789.34720611
1528,347028656.8372675
1577,0.0
2,6, 1, 6, 0, 2, 0.00,60.00,Sunday
16,3189789.34720611
1528,349075892.52575576
1577,0.0
2,6, 1, 6, 0, 3, 0.00,60.00,Sunday
16,5844449.515690964
1528,351477463.93826705
1577,0.0
2,6, 1, 6, 0, 4, 0.00,60.00,Sunday
16,3189789.34720611
1528,354400044.40267307
1577,0.0
2,6, 1, 6, 0, 5, 0.00,60.00,Sunday
16,3189789.34720611
1528,358085992.8749654
1577,0.0
2,6, 1, 6, 0, 6, 0.00,60.00,Sunday
16,5844032.18123139
1528,360563363.8830366
1577,0.0
2,6, 1, 6, 0, 7, 0.00,60.00,Sunday
16,3189789.34720611
1528,365185849.84712577
1577,0.0
2,6, 1, 6, 0, 8, 0.00,60.00,Sunday
16,6091648.01356229
1528,270247849.5420053
1577,0.0
2,6, 1, 6, 0, 9, 0.00,60.00,Sunday
16,6258201.408804504
1528,268005871.2488335
1577,0.0
2,6, 1, 6, 0,10, 0.00,60.00,Sunday
16,6258279.831359988
1528,266251327.06282127
1577,0.0
2,6, 1, 6, 0,11, 0.00,60.00,Sunday
16,3189789.34720611
1528,263736302.28912675
1577,0.0
2,6, 1, 6, 0,12, 0.00,60.00,Sunday
16,5919364.168564325
1528,260337280.48561758
1577,0.0
2,6, 1, 6, 0,13, 0.00,60.00,Sunday
16,3189789.34720611
1528,256893797.06888625
1577,0.0
2,6, 1, 6, 0,14, 0.00,60.00,Sunday
16,5919689.420481918
1528,253459169.67268807
1577,0.0
2,6, 1, 6, 0,15, 0.00,60.00,Sunday
16,3189789.34720611
1528,249986686.83124226
1577,0.0
2,6, 1, 6, 0,16, 0.00,60.00,Sunday
16,5439196.578652443
1528,247736300.68127918
1577,0.0
2,6, 1, 6, 0,17, 0.00,60.00,Sunday
16,3669904.864290328
1528,244986021.8814958
1577,0.0
2,6, 1, 6, 0,18, 0.00,60.00,Sunday
16,6122847.9605297
1528,241452650.15004185
1577,0.0
2,6, 1, 6, 0,19, 0.00,60.00,Sunday
16,4707606.5150796715
1528,237892199.76207173
1577,0.0
2,6, 1, 6, 0,20, 0.00,60.00,Sunday
16,4604666.995148612
1528,330225341.50902474
1577,0.0
2,6, 1, 6, 0,21, 0.00,60.00,Sunday
16,6122878.126631726
1528,329304584.41307753
1577,0.0
2,6, 1, 6, 0,22, 0.00,60.00,Sunday
16,6092438.841784537
1528,328624423.14100057
1577,0.0
2,6, 1, 6, 0,23, 0.00,60.00,Sunday
16,4710834.666996555
1528,326762301.4426956
1577,0.0
2,6, 1, 6, 0,24, 0.00,60.00,Sunday
16,4570715.289547766
1528,326509387.5545615
1577,0.0
3,6, 1, 6, 0,Sunday
7,-3.4229166666666675,-4.6, 7,60,-2.4,19,60
8,-4.572395833333333,-7.1, 1,15,-3.0,24,60
9,-3.8650041755420497,-4.887844760743663, 2,60,-2.6504321491632616,24,60
10,16.927083333333332,0.0, 1,15,89.0,12,30
11,4.8203125,0.0, 1,15,29.0,15,30
12,171.39382734271808,0.676999179191866, 1,45,340.21418969258576,24,60
13,-19.90459616452433,-60.14617945944964, 1,45,14.937429352245028,13,45
2844,33426112.340753067,0.0, 1,15,2612384.545120585,22,45
2983,0.0,0.0, 1,15,0.0, 1,15
2,7, 1, 7, 0, 1, 0.00,60.00,Monday
16,5844444.93590516
1528,326352133.5367647
1577,0.0
2,7, 1, 7, 0, 2, 0.00,60.00,Monday
16,3189789.34720611
1528,343525083.0693666
1577,0.0
2,7, 1, 7, 0, 3, 0.00,60.00,Monday
16,3189789.34720611
1528,372617685.8579549
1577,0.0
2,7, 1, 7, 0, 4, 0.00,60.00,Monday
16,3189789.34720611
1528,402878463.5652753
1577,0.0
2,7, 1, 7, 0, 5, 0.00,60.00,Monday
16,5844091.288685363
1528,432294152.05205095
1577,0.0
2,7, 1, 7, 0, 6, 0.00,60.00,Monday
16,3189789.34720611
1528,461306492.23450553
1577,0.0
2,7, 1, 7, 0, 7, 0.00,60.00,Monday
16,6092163.252454173
1528,494221696.23641604
1577,0.0
2,7, 1, 7, 0, 8, 0.00,60.00,Monday
16,3189789.34720611
1528,396428466.057533
1577,0.0
2,7, 1, 7, 0, 9, 0.00,60.00,Monday
16,6258744.59039253
1528,377259555.0104859
1577,0.0
2,7, 1, 7, 0,10, 0.00,60.00,Monday
16,6258234.974349791
1528,357629787.32566166
1577,0.0
2,7, 1, 7, 0,11, 0.00,60.00,Monday
16,5919177.912980771
1528,337862947.910676
1577,0.0
2,7, 1, 7, 0,12, 0.00,60.00,Monday
16,3189789.34720611
1528,318070106.15247995
1577,0.0
2,7, 1, 7, 0,13, 0.00,60.00,Monday
16,5919713.163542369
1528,298392742.099059
1577,0.0
2,7, 1, 7, 0,14, 0.00,60.00,Monday
16,3189789.34720611
1528,287479094.5206712
1577,0.0
2,7, 1, 7, 0,15, 0.00,60.00,Monday
16,3189789.34720611
1528,283100863.4350811
1577,0.0
2,7, 1, 7, 0,16, 0.00,60.00,Monday
16,5919576.065085499
1528,278389032.6057025
1577,0.0
2,7, 1, 7, 0,17, 0.00,60.00,Monday
16,3189789.34720611
1528,274170195.7706133
1577,0.0
2,7, 1, 7, 0,18, 0.00,60.00,Monday
16,6122983.401437424
1528,269270274.12702036
1577,0.0
2,7, 1, 7, 0,19, 0.00,60.00,Monday
16,6123430.442228373
1528,264801186.07956332
1577,0.0
2,7, 1, 7, 0,20, 0.00,60.00,Monday
16,6123339.628423838
1528,354568452.66036856
1577,0.0
2,7, 1, 7, 0,21, 0.00,60.00,Monday
16,3189789.34720611
1528,348688032.3773652
1577,0.0
2,7, 1, 7, 0,22, 0.00,60.00,Monday
16,6092030.716080915
1528,342526363.57538074
1577,0.0
2,7, 1, 7, 0,23, 0.00,60.00,Monday
16,6092208.414375426
1528,335663083.2731935
1577,0.0
2,7, 1, 7, 0,24, 0.00,60.00,Monday
16,5644808.385657712
1528,329988213.53386277
1577,0.0
3,7, 1, 7, 0,Monday
7,-5.505729166666664,-11.1, 7,60,-2.3,24,60
8,-6.389583333333333,-12.1, 7,60,-2.9, 1,60
9,-5.813797856992925,-11.366139782034363, 7,60,-2.600129425188394, 1,60
10,18.200520833333332,0.0, 1,15,84.0,12,30
11,80.8359375,0.0, 1,15,390.0,13,30
12,171.29259514926343,0.4747425056558858, 1,45,340.0772010768144,24,60
13,-19.800915512093123,-60.02709001319141, 1,45,15.057526730624629,13,45
2844,35638106.67964243,0.0, 1,15,2688173.1104217554, 9,15
2983,0.0,0.0, 1,15,0.0, 1,15
2,8, 1, 8, 0, 1, 0.00,60.00,Tuesday
16,3598087.8284769882
1528,324916158.8526339
1577,0.0
2,8, 1, 8, 0, 2, 0.00,60.00,Tuesday
16,3189789.34720611
1528,323043724.72650015
1577,0.0
2,8, 1, 8, 0, 3, 0.00,60.00,Tuesday
16,3189789.34720611
1528,322655903.33584
1577,0.0
2,8, 1, 8, 0, 4, 0.00,60.00,Tuesday
16,5844488.7455405295
1528,323535738.5772413
1577,0.0
2,8, 1, 8, 0, 5, 0.00,60.00,Tuesday
16,3189789.34720611
1528,323939730.12747043
1577,0.0
2,8, 1, 8, 0, 6, 0.00,60.00,Tuesday
16,3189789.34720611
1528,323624104.43303335
1577,0.0
2,8, 1, 8, 0, 7, 0.00,60.00,Tuesday
16,6091781.172404148
1528,324775042.20048666
1577,0.0
2,8, 1, 8, 0, 8, 0.00,60.00,Tuesday
16,6092468.725336338
1528,221471959.19356036
1577,0.0
2,8, 1, 8, 0, 9, 0.00,60.00,Tuesday
16,6076041.571980797
1528,210654840.30840153
1577,0.0
2,8, 1, 8, 0,10, 0.00,60.00,Tuesday
16,5355219.404939362
1528,198595482.4303811
1577,0.0
2,8, 1, 8, 0,11, 0.00,60.00,Tuesday
16,4153638.9752389523
1528,188025495.87948447
1577,0.0
2,8, 1, 8, 0,12, 0.00,60.00,Tuesday
16,3189789.34720611
1528,182363329.37842968
1577,0.0
2,8, 1, 8, 0,13, 0.00,60.00,Tuesday
16,5919337.941112254
1528,177593251.78327334
1577,0.0
2,8, 1, 8, 0,14, 0.00,60.00,Tuesday
16,3189789.34720611
1528,174408732.78910398
1577,0.0
2,8, 1, 8, 0,15, 0.00,60.00,Tuesday
16,5919692.112349933
1528,166682358.00961095
1577,0.0
2,8, 1, 8, 0,16, 0.00,60.00,Tuesday
16,3189789.34720611
1528,163661768.74886185
1577,0.0
2,8, 1, 8, 0,17, 0.00,60.00,Tuesday
16,5484186.820170441
1528,165568096.69335705
1577,0.0
2,8, 1, 8, 0,18, 0.00,60.00,Tuesday
16,3658077.752325821
1528,160393893.002272
1577,0.0
2,8, 1, 8, 0,19, 0.00,60.00,Tuesday
16,6122697.50213732
1528,153344851.34352767
1577,0.0
2,8, 1, 8, 0,20, 0.00,60.00,Tuesday
16,6122791.820194365
1528,238909154.43877363
1577,0.0
2,8, 1, 8, 0,21, 0.00,60.00,Tuesday
16,6123237.051943344
1528,226572953.9931249
1577,0.0
2,8, 1, 8, 0,22, 0.00,60.00,Tuesday
16,3189789.34720611
1528,212546621.4983017
1577,0.0
2,8, 1, 8, 0,23, 0.00,60.00,Tuesday
16,6092015.015324408
1528,204986734.82618883
1577,0.0
2,8, 1, 8, 0,24, 0.00,60.00,Tuesday
16,6092229.2363696955
1528,206209871.85572135
1577,0.0
3,8, 1, 8, 0,Tuesday
7,0.33385416666666695,-2.25, 1,15,4.0,23,60
8,-0.19583404686953979,-3.6, 7,60,4.0,23,60
9,0.1188314416176298,-2.7575005134912995, 7,60,4.0,23,60
10,6.432291666666667,0.0, 1,15,34.0,12,30
11,0.3151041666666667,0.0, 1,15,7.0,10,30
12,171.19300465716188,0.2770419467789127, 1,45,339.9474288361953,24,60
13,-19.69085628613162,-59.900432936670626, 1,45,15.184830734836614,13,45
2844,33938425.90849224,0.0, 1,30,2612411.4403172056, 8,60
2983,0.0,0.0, 1,15,0.0, 1,15
2,9, 1, 9, 0, 1, 0.00,60.00,Wednesday
16,3189789.34720611
1528,209624731.9603649
1577,0.0
2,9, 1, 9, 0, 2, 0.00,60.00,Wednesday
16,3189789.34720611
1528,220136450.6980142
1577,0.0
2,9, 1, 9, 0, 3, 0.00,60.00,Wednesday
16,5844241.963280847
1528,233782705.05645275
1577,0.0
2,9, 1, 9, 0, 4, 0.00,60.00,Wednesday
16,3189789.34720611
1528,237333236.86232692
1577,0.0
2,9, 1, 9, 0, 5, 0.00,60.00,Wednesday
16,3189789.34720611
1528,225811607.579211
1577,0.0
2,9, 1, 9, 0, 6, 0.00,60.00,Wednesday
16,3189789.34720611
1528,213401944.01724693
1577,0.0
2,9, 1, 9, 0, 7, 0.00,60.00,Wednesday
16,6092427.046394035
1528,209476883.60456628
1577,0.0
2,9, 1, 9, 0, 8, 0.00,60.00,Wednesday
16,6091764.742151659
1528,123289157.25707413
1577,0.0
2,9, 1, 9, 0, 9, 0.00,60.00,Wednesday
16,6258744.99280747
1528,122093722.24354655
1577,0.0
2,9, 1, 9, 0,10, 0.00,60.00,Wednesday
16,6258235.109324962
1528,112776352.25723529
1577,0.0
2,9, 1, 9, 0,11, 0.00,60.00,Wednesday
16,3189789.34720611
1528,102814832.42644589
1577,0.0
2,9, 1, 9, 0,12, 0.00,60.00,Wednesday
16,5919127.622844505
1528,92050494.45853107
1577,0.0
2,9, 1, 9, 0,13, 0.00,60.00,Wednesday
16,3189789.34720611
1528,81306112.8570686
1577,0.0
2,9, 1, 9, 0,14, 0.00,60.00,Wednesday
16,3189789.34720611
1528,79709592.32735586
1577,0.0
2,9, 1, 9, 0,15, 0.00,60.00,Wednesday
16,5919723.758446634
1528,82413346.34322473
1577,0.0
2,9, 1, 9, 0,16, 0.00,60.00,Wednesday
16,3189789.34720611
1528,85507694.34094958
1577,0.0
2,9, 1, 9, 0,17, 0.00,60.00,Wednesday
16,5919650.116762172
1528,89217787.56197385
1577,0.0
2,9, 1, 9, 0,18, 0.00,60.00,Wednesday
16,5590826.874117982
1528,91783944.53957209
1577,0.0
2,9, 1, 9, 0,19, 0.00,60.00,Wednesday
16,3721879.492521373
1528,94855294.21878192
1577,0.0
2,9, 1, 9, 0,20, 0.00,60.00,Wednesday
16,6122566.8481984995
1528,186880897.56896004
1577,0.0
2,9, 1, 9, 0,21, 0.00,60.00,Wednesday
16,6122816.1179536395
1528,164744358.6260833
1577,0.0
2,9, 1, 9, 0,22, 0.00,60.00,Wednesday
16,6092420.486476611
1528,145865042.6262293
1577,0.0
2,9, 1, 9, 0,23, 0.00,60.00,Wednesday
16,3189789.34720611
1528,137852883.31586292
1577,0.0
2,9, 1, 9, 0,24, 0.00,60.00,Wednesday
16,6091770.000677928
1528,135357134.27543873
1577,0.0
3,9, 1, 9, 0,Wednesday
7,4.736458333333332,2.1, 3,60,7.6,23,60
8,4.126040580561692,1.9, 1,60,5.999997196412721,13,60
9,4.590807866781274,2.0999984741210938, 3,60,6.748006875248453,23,60
10,18.317708333333332,0.0, 1,15,94.0,12,30
11,18.375,0.0, 1,15,158.0,13,30
12,171.0951546233548,0.08415330395139851, 1,45,339.824999142154,24,60
13,-19.574463356569648,-59.76628024130013, 1,45,15.319288581092687,13,45
2844,33650229.87996551,0.0, 1,15,2688601.7964602243, 9,45
2983,0.0,0.0, 1,15,0.0, 1,15
2,10, 1,10, 0, 1, 0.00,60.00,Thursday
16,3189789.34720611
1528,138399659.18156868
1577,0.0
2,10, 1,10, 0, 2, 0.00,60.00,Thursday
16,5844443.507754985
1528,145680844.5434962
1577,0.0
2,10, 1,10, 0, 3, 0.00,60.00,Thursday
16,3189789.34720611
1528,168043962.98081177
1577,0.0
2,10, 1,10, 0, 4, 0.00,60.00,Thursday
16,3189789.34720611
1528,179378387.23407358
1577,0.0
2,10, 1,10, 0, 5, 0.00,60.00,Thursday
16,3189789.34720611
1528,180256290.59832925
1577,0.0
2,10, 1,10, 0, 6, 0.00,60.00,Thursday
16,5844111.837518189
1528,180691371.5790786
1577,0.0
2,10, 1,10, 0, 7, 0.00,60.00,Thursday
16,3417843.483644279
1528,181265601.1937257
1577,0.0
2,10, 1,10, 0, 8, 0.00,60.00,Thursday
16,5863361.5693897195
1528,95101083.90762965
1577,0.0
2,10, 1,10, 0, 9, 0.00,60.00,Thursday
16,6258971.126705458
1528,103902987.087628
1577,0.0
2,10, 1,10, 0,10, 0.00,60.00,Thursday
16,6258824.428580269
1528,111816337.23084505
1577,0.0
2,10, 1,10, 0,11, 0.00,60.00,Thursday
16,4617424.995388972
1528,97984757.74935111
1577,0.0
2,10, 1,10, 0,12, 0.00,60.00,Thursday
16,4491452.244438244
1528,88184649.705414
1577,0.0
2,10, 1,10, 0,13, 0.00,60.00,Thursday
16,3189789.34720611
1528,90729392.8203679
1577,0.0
2,10, 1,10, 0,14, 0.00,60.00,Thursday
16,5919566.896709293
1528,91200800.33623014
1577,0.0
2,10, 1,10, 0,15, 0.00,60.00,Thursday
16,3189789.34720611
1528,93024256.58927473
1577,0.0
2,10, 1,10, 0,16, 0.00,60.00,Thursday
16,5919671.892527914
1528,97983819.27270529
1577,0.0
2,10, 1,10, 0,17, 0.00,60.00,Thursday
16,3189789.34720611
1528,103545617.87753479
1577,0.0
2,10, 1,10, 0,18, 0.00,60.00,Thursday
16,6122910.009149374
1528,118141297.82650623
1577,0.0
2,10, 1,10, 0,19, 0.00,60.00,Thursday
16,6123446.099960107
1528,123409621.53926468
1577,0.0
2,10, 1,10, 0,20, 0.00,60.00,Thursday
16,3189789.34720611
1528,214959490.9321515
1577,0.0
2,10, 1,10, 0,21, 0.00,60.00,Thursday
16,6123355.301994709
1528,216936907.77496797
1577,0.0
2,10, 1,10, 0,22, 0.00,60.00,Thursday
16,6091938.173141148
1528,219643386.1532446
1577,0.0
2,10, 1,10, 0,23, 0.00,60.00,Thursday
16,6092350.178646009
1528,221635227.08352816
1577,0.0
2,10, 1,10, 0,24, 0.00,60.00,Thursday
16,3189789.34720611
1528,212098221.30104664
1577,0.0
3,10, 1,10, 0,Thursday
7,4.616666666666666,2.7,23,60,7.5249999999999995, 1,15
8,2.0005208333333333,0.2, 7,60,5.3999999999999995, 1,15
9,3.6733112254525153,2.509699567522247,23,60,6.459245160919081, 1,15
10,18.4375,0.0, 1,15,91.0,13,30
11,35.565104166666664,0.0, 1,15,199.0,10,30
12,171.00130137365522,0.1036831833804491, 1,45,339.71002178991677,24,60
13,-19.451784315637955,-59.624707977317236, 1,45,15.460844461957508,13,45
2844,33428548.38371133,0.0, 1,15,2762263.6015494145, 9,30
2983,0.0,0.0, 1,15,0.0, 1,15
2,11, 1,11, 0, 1, 0.00,60.00,Friday
16,5844440.714709133
1528,204289529.45916757
1577,0.0
2,11, 1,11, 0, 2, 0.00,60.00,Friday
16,3189789.34720611
1528,206826257.390653
1577,0.0
2,11, 1,11, 0, 3, 0.00,60.00,Friday
16,3189789.34720611
1528,212298090.06677338
1577,0.0
2,11, 1,11, 0, 4, 0.00,60.00,Friday
16,3649290.4726910666
1528,217832782.98503676
1577,0.0
2,11, 1,11, 0, 5, 0.00,60.00,Friday
16,5384653.8066061605
1528,221106932.97549945
1577,0.0
2,11, 1,11, 0, 6, 0.00,60.00,Friday
16,3189789.34720611
1528,219544919.18018022
1577,0.0
2,11, 1,11, 0, 7, 0.00,60.00,Friday
16,6092399.631889764
1528,218023796.13947773
1577,0.0
2,11, 1,11, 0, 8, 0.00,60.00,Friday
16,4363013.471135379
1528,126384437.73106174
1577,0.0
2,11, 1,11, 0, 9, 0.00,60.00,Friday
16,5354051.176903137
1528,133772624.2744773
1577,0.0
2,11, 1,11, 0,10, 0.00,60.00,Friday
16,5923405.513372544
1528,134424658.55395362
1577,0.0
2,11, 1,11, 0,11, 0.00,60.00,Friday
16,5919649.227210196
1528,115653673.5915367
1577,0.0
2,11, 1,11, 0,12, 0.00,60.00,Friday
16,3189789.34720611
1528,114818457.39187464
1577,0.0
2,11, 1,11, 0,13, 0.00,60.00,Friday
16,5919096.400717001
1528,116009766.37005997
1577,0.0
2,11, 1,11, 0,14, 0.00,60.00,Friday
16,3189789.34720611
1528,117025170.80669497
1577,0.0
2,11, 1,11, 0,15, 0.00,60.00,Friday
16,5919455.894442416
1528,110342073.66724585
1577,0.0
2,11, 1,11, 0,16, 0.00,60.00,Friday
16,3189789.34720611
1528,122460638.24567868
1577,0.0
2,11, 1,11, 0,17, 0.00,60.00,Friday
16,3189789.34720611
1528,136679780.43521833
1577,0.0
2,11, 1,11, 0,18, 0.00,60.00,Friday
16,6123394.046541493
1528,134446406.8146446
1577,0.0
2,11, 1,11, 0,19, 0.00,60.00,Friday
16,6123303.254935415
1528,134214510.77246699
1577,0.0
2,11, 1,11, 0,20, 0.00,60.00,Friday
16,6122855.71669565