Program Version,EnergyPlus, Version 23.2.0-7636e6b3e9, YMD=2025.02.02 01:33
1,5,Environment Title[],Latitude[deg],Longitude[deg],Time Zone[],Elevation[m]
2,8,Day of Simulation[],Month[],Day of Month[],DST Indicator[1=yes 0=no],Hour[],StartMinute[],EndMinute[],DayType
3,5,Cumulative Day of Simulation[],Month[],Day of Month[],DST Indicator[1=yes 0=no],DayType  ! When Daily Meters Requested
4,2,Cumulative Days of Simulation[],Month[]  ! When Monthly Meters Requested
5,1,Cumulative Days of Simulation[] ! When Run Period Meters Requested
6,1,Calendar Year of Simulation[] ! When Annual Meters Requested
1528,1,Heating:EnergyTransfer [J] !Hourly
1577,1,Cooling:EnergyTransfer [J] !Hourly
16,1,Electricity:Facility [J] !Hourly
End of Data Dictionary
1,RUN PERIOD 1,  52.46,   5.52,   1.00,  -3.90
2,1, 1, 1, 0, 1, 0.00,60.00,Tuesday
16,3389746.018465958
1528,215707131.5458472
1577,0.0
2,1, 1, 1, 0, 2, 0.00,60.00,Tuesday
16,3389746.018465958
1528,207657597.72393352
1577,0.0
2,1, 1, 1, 0, 3, 0.00,60.00,Tuesday
16,3389746.018465958
1528,210629980.03905398
1577,0.0
2,1, 1, 1, 0, 4, 0.00,60.00,Tuesday
16,6044204.254528569
1528,213188143.09801584
1577,0.0
2,1, 1, 1, 0, 5, 0.00,60.00,Tuesday
16,3389746.018465958
1528,215087398.34527004
1577,0.0
2,1, 1, 1, 0, 6, 0.00,60.00,Tuesday
16,3389746.018465958
1528,218148414.32403308
1577,0.0
2,1, 1, 1, 0, 7, 0.00,60.00,Tuesday
16,6291766.950723962
1528,221765926.31897604
1577,0.0
2,1, 1, 1, 0, 8, 0.00,60.00,Tuesday
16,6292441.290315085
1528,116997649.44041257
1577,0.0
2,1, 1, 1, 0, 9, 0.00,60.00,Tuesday
16,6378230.7551902495
1528,126871377.0833745
1577,0.0
2,1, 1, 1, 0,10, 0.00,60.00,Tuesday
16,5555316.418779603
1528,127088593.84312928
1577,0.0
2,1, 1, 1, 0,11, 0.00,60.00,Tuesday
16,4262719.529652752
1528,131040668.93076596
1577,0.0
2,1, 1, 1, 0,12, 0.00,60.00,Tuesday
16,3389746.018465958
1528,138723321.64447048
1577,0.0
2,1, 1, 1, 0,13, 0.00,60.00,Tuesday
16,6119245.6099828025
1528,142614827.20439264
1577,0.0
2,1, 1, 1, 0,14, 0.00,60.00,Tuesday
16,3389746.018465958
1528,146159252.3291952
1577,0.0
2,1, 1, 1, 0,15, 0.00,60.00,Tuesday
16,6119654.222236568
1528,147954184.6426131
1577,0.0
2,1, 1, 1, 0,16, 0.00,60.00,Tuesday
16,3389746.018465958
1528,151806640.3619694
1577,0.0
2,1, 1, 1, 0,17, 0.00,60.00,Tuesday
16,5775050.182800565
1528,149725122.91773063
1577,0.0
2,1, 1, 1, 0,18, 0.00,60.00,Tuesday
16,3760284.0618824395
1528,143866689.13525173
1577,0.0
2,1, 1, 1, 0,19, 0.00,60.00,Tuesday
16,6322667.832876835
1528,137510453.74788016
1577,0.0
2,1, 1, 1, 0,20, 0.00,60.00,Tuesday
16,6322716.046052566
1528,239382424.41830844
1577,0.0
2,1, 1, 1, 0,21, 0.00,60.00,Tuesday
16,6323114.998210767
1528,227300117.62946206
1577,0.0
2,1, 1, 1, 0,22, 0.00,60.00,Tuesday
16,3389746.018465958
1528,221587857.17481944
1577,0.0
2,1, 1, 1, 0,23, 0.00,60.00,Tuesday
16,6292034.898678076
1528,226579487.9864205
1577,0.0
2,1, 1, 1, 0,24, 0.00,60.00,Tuesday
16,6292108.13177726
1528,232536044.68715808
1577,0.0
2,2, 1, 2, 0, 1, 0.00,60.00,Wednesday
16,3389746.018465958
1528,235255020.18186182
1577,0.0
2,2, 1, 2, 0, 2, 0.00,60.00,Wednesday
16,3389746.018465958
1528,230437739.23972678
1577,0.0
2,2, 1, 2, 0, 3, 0.00,60.00,Wednesday
16,6044023.517970828
1528,229196203.03205293
1577,0.0
2,2, 1, 2, 0, 4, 0.00,60.00,Wednesday
16,3389746.018465958
1528,234003689.07303786
1577,0.0
2,2, 1, 2, 0, 5, 0.00,60.00,Wednesday
16,3389746.018465958
1528,225681975.13396674
1577,0.0
2,2, 1, 2, 0, 6, 0.00,60.00,Wednesday
16,3389746.018465958
1528,219457705.83405042
1577,0.0
2,2, 1, 2, 0, 7, 0.00,60.00,Wednesday
16,6292395.52209626
1528,215839173.67831385
1577,0.0
2,2, 1, 2, 0, 8, 0.00,60.00,Wednesday
16,6291717.277844237
1528,97368698.37844646
1577,0.0
2,2, 1, 2, 0, 9, 0.00,60.00,Wednesday
16,6458767.555541407
1528,96114114.90058482
1577,0.0
2,2, 1, 2, 0,10, 0.00,60.00,Wednesday
16,6458215.086039016
1528,98506346.18641408
1577,0.0
2,2, 1, 2, 0,11, 0.00,60.00,Wednesday
16,3389746.018465958
1528,101135700.28176835
1577,0.0
2,2, 1, 2, 0,12, 0.00,60.00,Wednesday
16,6119053.104730678
1528,111502963.83157177
1577,0.0
2,2, 1, 2, 0,13, 0.00,60.00,Wednesday
16,3389746.018465958
1528,115214653.17401773
1577,0.0
2,2, 1, 2, 0,14, 0.00,60.00,Wednesday
16,3410097.499997734
1528,116619402.06702891
1577,0.0
2,2, 1, 2, 0,15, 0.00,60.00,Wednesday
16,6099320.511846221
1528,104796389.42482182
1577,0.0
2,2, 1, 2, 0,16, 0.00,60.00,Wednesday
16,3389746.018465958
1528,100687498.23803097
1577,0.0
2,2, 1, 2, 0,17, 0.00,60.00,Wednesday
16,6119618.033091389
1528,105710898.41164416
1577,0.0
2,2, 1, 2, 0,18, 0.00,60.00,Wednesday
16,5888230.969452253
1528,112164036.20051387
1577,0.0
2,2, 1, 2, 0,19, 0.00,60.00,Wednesday
16,3824444.1079175225
1528,128039968.96625227
1577,0.0
2,2, 1, 2, 0,20, 0.00,60.00,Wednesday
16,6322480.463083517
1528,242715801.4216623
1577,0.0
2,2, 1, 2, 0,21, 0.00,60.00,Wednesday
16,6322736.50172713
1528,234297823.7470356
1577,0.0
2,2, 1, 2, 0,22, 0.00,60.00,Wednesday
16,6292388.978078473
1528,230070223.7256722
1577,0.0
2,2, 1, 2, 0,23, 0.00,60.00,Wednesday
16,3389746.018465958
1528,233433418.87834978
1577,0.0
2,2, 1, 2, 0,24, 0.00,60.00,Wednesday
16,6291718.696149452
1528,239450759.28612423
1577,0.0
2,3, 1, 3, 0, 1, 0.00,60.00,Thursday
16,3389746.018465958
1528,250392405.15497592
1577,0.0
2,3, 1, 3, 0, 2, 0.00,60.00,Thursday
16,6044411.172731123
1528,257171472.81457376
1577,0.0
2,3, 1, 3, 0, 3, 0.00,60.00,Thursday
16,3389746.018465958
1528,257794606.8636108
1577,0.0
2,3, 1, 3, 0, 4, 0.00,60.00,Thursday
16,3389746.018465958
1528,263714378.7461533
1577,0.0
2,3, 1, 3, 0, 5, 0.00,60.00,Thursday
16,3389746.018465958
1528,263706702.65607345
1577,0.0
2,3, 1, 3, 0, 6, 0.00,60.00,Thursday
16,6043936.273628302
1528,267558043.29913962
1577,0.0
2,3, 1, 3, 0, 7, 0.00,60.00,Thursday
16,3722891.327873556
1528,274829700.84823555
1577,0.0
2,3, 1, 3, 0, 8, 0.00,60.00,Thursday
16,5958209.007944395
1528,163941466.77265072
1577,0.0
2,3, 1, 3, 0, 9, 0.00,60.00,Thursday
16,6458940.128997197
1528,170889350.75091338
1577,0.0
2,3, 1, 3, 0,10, 0.00,60.00,Thursday
16,6458793.451856682
1528,166907468.89387876
1577,0.0
2,3, 1, 3, 0,11, 0.00,60.00,Thursday
16,5005775.716552116
1528,151414152.4246626
1577,0.0
2,3, 1, 3, 0,12, 0.00,60.00,Thursday
16,4503027.836279782
1528,142446144.99579048
1577,0.0
2,3, 1, 3, 0,13, 0.00,60.00,Thursday
16,3389746.018465958
1528,140294430.57727253
1577,0.0
2,3, 1, 3, 0,14, 0.00,60.00,Thursday
16,6119386.794168092
1528,147055084.44406164
1577,0.0
2,3, 1, 3, 0,15, 0.00,60.00,Thursday
16,3389746.018465958
1528,149372186.33940387
1577,0.0
2,3, 1, 3, 0,16, 0.00,60.00,Thursday
16,6119639.839894231
1528,163970076.80205703
1577,0.0
2,3, 1, 3, 0,17, 0.00,60.00,Thursday
16,3389746.018465958
1528,181015057.3268081
1577,0.0
2,3, 1, 3, 0,18, 0.00,60.00,Thursday
16,6322817.923616992
1528,192879729.2032833
1577,0.0
2,3, 1, 3, 0,19, 0.00,60.00,Thursday
16,6323342.208468571
1528,204705622.2449455
1577,0.0
2,3, 1, 3, 0,20, 0.00,60.00,Thursday
16,3389746.018465958
1528,318699707.2543183
1577,0.0
2,3, 1, 3, 0,21, 0.00,60.00,Thursday
16,6323323.890282684
1528,306304456.6620281
1577,0.0
2,3, 1, 3, 0,22, 0.00,60.00,Thursday
16,6291947.996559998
1528,296311766.7454895
1577,0.0
2,3, 1, 3, 0,23, 0.00,60.00,Thursday
16,6292219.5348977465
1528,284973016.2463008
1577,0.0
2,3, 1, 3, 0,24, 0.00,60.00,Thursday
16,3389746.018465958
1528,274468212.75101703
1577,0.0
2,4, 1, 4, 0, 1, 0.00,60.00,Friday
16,6044408.420607335
1528,310448112.59464943
1577,0.0
2,4, 1, 4, 0, 2, 0.00,60.00,Friday
16,3389746.018465958
1528,336961589.3229016
1577,0.0
2,4, 1, 4, 0, 3, 0.00,60.00,Friday
16,3389746.018465958
1528,340641382.69381624
1577,0.0
2,4, 1, 4, 0, 4, 0.00,60.00,Friday
16,4153482.6057322924
1528,345603514.892316
1577,0.0
2,4, 1, 4, 0, 5, 0.00,60.00,Friday
16,5280227.192545152
1528,350128439.2406942
1577,0.0
2,4, 1, 4, 0, 6, 0.00,60.00,Friday
16,3389746.018465958
1528,353938189.75301594
1577,0.0
2,4, 1, 4, 0, 7, 0.00,60.00,Friday
16,6292368.161532852
1528,359375177.5379283
1577,0.0
2,4, 1, 4, 0, 8, 0.00,60.00,Friday
16,4668005.144189861
1528,239146454.77790472
1577,0.0
2,4, 1, 4, 0, 9, 0.00,60.00,Friday
16,5554021.776661322
1528,233393674.29346997
1577,0.0
2,4, 1, 4, 0,10, 0.00,60.00,Friday
16,6012204.705726684
1528,226454660.04797903
1577,0.0
2,4, 1, 4, 0,11, 0.00,60.00,Friday
16,6119622.415284717
1528,219165456.891747
1577,0.0
2,4, 1, 4, 0,12, 0.00,60.00,Friday
16,3389746.018465958
1528,211784420.02386078
1577,0.0
2,4, 1, 4, 0,13, 0.00,60.00,Friday
16,6119106.558119772
1528,204400840.62273407
1577,0.0
2,4, 1, 4, 0,14, 0.00,60.00,Friday
16,3389746.018465958
1528,205457301.0054411
1577,0.0
2,4, 1, 4, 0,15, 0.00,60.00,Friday
16,6119246.922199288
1528,211650512.6436817
1577,0.0
2,4, 1, 4, 0,16, 0.00,60.00,Friday
16,3389746.018465958
1528,218063401.3277577
1577,0.0
2,4, 1, 4, 0,17, 0.00,60.00,Friday
16,3389746.018465958
1528,225695447.8638556
1577,0.0
2,4, 1, 4, 0,18, 0.00,60.00,Friday
16,6323368.137311122
1528,232592980.04894343
1577,0.0
2,4, 1, 4, 0,19, 0.00,60.00,Friday
16,6323277.359136865
1528,238682908.48860598
1577,0.0
2,4, 1, 4, 0,20, 0.00,60.00,Friday
16,6322884.35944872
1528,368573479.2857457
1577,0.0
2,4, 1, 4, 0,21, 0.00,60.00,Friday
16,5067254.890721526
1528,375939380.7253108
1577,0.0
2,4, 1, 4, 0,22, 0.00,60.00,Friday
16,4631716.412238238
1528,378885974.8638699
1577,0.0
2,4, 1, 4, 0,23, 0.00,60.00,Friday
16,6292411.2905538855
1528,391787402.69541293
1577,0.0
2,4, 1, 4, 0,24, 0.00,60.00,Friday
16,6291722.62290494
1528,399561678.52040935
1577,0.0
2,5, 1, 5, 0, 1, 0.00,60.00,Saturday
16,3389746.018465958
1528,397609683.78684133
1577,0.0
2,5, 1, 5, 0, 2, 0.00,60.00,Saturday
16,3389746.018465958
1528,397545171.5175923
1577,0.0
2,5, 1, 5, 0, 3, 0.00,60.00,Saturday
16,3850121.535480352
1528,399182932.45052826
1577,0.0
2,5, 1, 5, 0, 4, 0.00,60.00,Saturday
16,5583735.576620465
1528,400864557.3952572
1577,0.0
2,5, 1, 5, 0, 5, 0.00,60.00,Saturday
16,3389746.018465958
1528,402580150.72148085
1577,0.0
2,5, 1, 5, 0, 6, 0.00,60.00,Saturday
16,3389746.018465958
1528,404325040.4009859
1577,0.0
2,5, 1, 5, 0, 7, 0.00,60.00,Saturday
16,6291954.315393174
1528,407912692.424469
1577,0.0
2,5, 1, 5, 0, 8, 0.00,60.00,Saturday
16,6292210.0119212745
1528,286186592.1036393
1577,0.0
2,5, 1, 5, 0, 9, 0.00,60.00,Saturday
16,6458287.7725137705
1528,278981994.8193631
1577,0.0
2,5, 1, 5, 0,10, 0.00,60.00,Saturday
16,6458950.032067595
1528,271024878.0654818
1577,0.0
2,5, 1, 5, 0,11, 0.00,60.00,Saturday
16,3389746.018465958
1528,262235775.94993353
1577,0.0
2,5, 1, 5, 0,12, 0.00,60.00,Saturday
16,3541135.1120529156
1528,252643540.57024786
1577,0.0
2,5, 1, 5, 0,13, 0.00,60.00,Saturday
16,5968170.479723793
1528,244300475.6658251
1577,0.0
2,5, 1, 5, 0,14, 0.00,60.00,Saturday
16,3389746.018465958
1528,242766890.44206023
1577,0.0
2,5, 1, 5, 0,15, 0.00,60.00,Saturday
16,6119625.874427541
1528,246163182.0267537
1577,0.0
2,5, 1, 5, 0,16, 0.00,60.00,Saturday
16,3389746.018465958
1528,249255909.7719968
1577,0.0
2,5, 1, 5, 0,17, 0.00,60.00,Saturday
16,6119123.962631279
1528,251574463.79944947
1577,0.0
2,5, 1, 5, 0,18, 0.00,60.00,Saturday
16,3389746.018465958
1528,254866290.89032808
1577,0.0
2,5, 1, 5, 0,19, 0.00,60.00,Saturday
16,6323374.299118048
1528,257583263.36250553
1577,0.0
2,5, 1, 5, 0,20, 0.00,60.00,Saturday
16,6323283.475684507
1528,373759269.9568709
1577,0.0
2,5, 1, 5, 0,21, 0.00,60.00,Saturday
16,6322912.89590561
1528,371725949.46760356
1577,0.0
2,5, 1, 5, 0,22, 0.00,60.00,Saturday
16,3996705.1878576986
1528,370340238.2148019
1577,0.0
2,5, 1, 5, 0,23, 0.00,60.00,Saturday
16,5685029.112770761
1528,367689715.4338561
1577,0.0
2,5, 1, 5, 0,24, 0.00,60.00,Saturday
16,6292164.209226854
1528,366878069.0466371
1577,0.0
2,6, 1, 6, 0, 1, 0.00,60.00,Sunday
16,3389746.018465958
1528,366186372.27067256
1577,0.0
2,6, 1, 6, 0, 2, 0.00,60.00,Sunday
16,3389746.018465958
1528,368152397.3436203
1577,0.0
2,6, 1, 6, 0, 3, 0.00,60.00,Sunday
16,6044406.184748042
1528,370489384.07807964
1577,0.0
2,6, 1, 6, 0, 4, 0.00,60.00,Sunday
16,3389746.018465958
1528,373359397.1050034
1577,0.0
2,6, 1, 6, 0, 5, 0.00,60.00,Sunday
16,3389746.018465958
1528,377002899.3875326
1577,0.0
2,6, 1, 6, 0, 6, 0.00,60.00,Sunday
16,6043988.878431691
1528,379439380.3398741
1577,0.0
2,6, 1, 6, 0, 7, 0.00,60.00,Sunday
16,3389746.018465958
1528,384108416.69160396
1577,0.0
2,6, 1, 6, 0, 8, 0.00,60.00,Sunday
16,6291596.213349944
1528,267447854.47727868
1577,0.0
2,6, 1, 6, 0, 9, 0.00,60.00,Sunday
16,6458158.0778907575
1528,265891187.46731257
1577,0.0
2,6, 1, 6, 0,10, 0.00,60.00,Sunday
16,6458236.507179839
1528,264416977.9270923
1577,0.0
2,6, 1, 6, 0,11, 0.00,60.00,Sunday
16,3389746.018465958
1528,262083541.64493182
1577,0.0
2,6, 1, 6, 0,12, 0.00,60.00,Sunday
16,6119320.856285079
1528,258816292.79229212
1577,0.0
2,6, 1, 6, 0,13, 0.00,60.00,Sunday
16,3389746.018465958
1528,255476571.8405993
1577,0.0
2,6, 1, 6, 0,14, 0.00,60.00,Sunday
16,6119646.090093385
1528,252127102.69077927
1577,0.0
2,6, 1, 6, 0,15, 0.00,60.00,Sunday
16,3389746.018465958
1528,248724528.9953192
1577,0.0
2,6, 1, 6, 0,16, 0.00,60.00,Sunday
16,5639125.7009615265
1528,246533529.15038466
1577,0.0
2,6, 1, 6, 0,17, 0.00,60.00,Sunday
16,3869889.0696971463
1528,243835553.6805777
1577,0.0
2,6, 1, 6, 0,18, 0.00,60.00,Sunday
16,6322804.625369722
1528,240346523.18308976
1577,0.0
2,6, 1, 6, 0,19, 0.00,60.00,Sunday
16,4907548.887031262
1528,236825225.24928293
1577,0.0
2,6, 1, 6, 0,20, 0.00,60.00,Sunday
16,4804627.550734831
1528,350792099.3538295
1577,0.0
2,6, 1, 6, 0,21, 0.00,60.00,Sunday
16,6322834.800582511
1528,349249865.98163885
1577,0.0
2,6, 1, 6, 0,22, 0.00,60.00,Sunday
16,6292395.512533087
1528,348298290.1902328
1577,0.0
2,6, 1, 6, 0,23, 0.00,60.00,Sunday
16,4910785.453560214
1528,346180683.7836812
1577,0.0
2,6, 1, 6, 0,24, 0.00,60.00,Sunday
16,4770677.845650066
1528,345803044.55050683
1577,0.0
2,7, 1, 7, 0, 1, 0.00,60.00,Monday
16,6044401.606546121
1528,345549311.3646158
1577,0.0
2,7, 1, 7, 0, 2, 0.00,60.00,Monday
16,3389746.018465958
1528,362711504.6122962
1577,0.0
2,7, 1, 7, 0, 3, 0.00,60.00,Monday
16,3389746.018465958
1528,391848164.00294787
1577,0.0
2,7, 1, 7, 0, 4, 0.00,60.00,Monday
16,3389746.018465958
1528,422167168.5417454
1577,0.0
2,7, 1, 7, 0, 5, 0.00,60.00,Monday
16,6044047.968631978
1528,451646003.2691821
1577,0.0
2,7, 1, 7, 0, 6, 0.00,60.00,Monday
16,3389746.018465958
1528,480725867.502575
1577,0.0
2,7, 1, 7, 0, 7, 0.00,60.00,Monday
16,6292119.927941112
1528,513802950.3491051
1577,0.0
2,7, 1, 7, 0, 8, 0.00,60.00,Monday
16,3389746.018465958
1528,393501219.20505834
1577,0.0
2,7, 1, 7, 0, 9, 0.00,60.00,Monday
16,6458701.252064694
1528,375121486.74441516
1577,0.0
2,7, 1, 7, 0,10, 0.00,60.00,Monday
16,6458191.6423949795
1528,355764700.56088626
1577,0.0
2,7, 1, 7, 0,11, 0.00,60.00,Monday
16,6119134.593856884
1528,336175635.18520707
1577,0.0
2,7, 1, 7, 0,12, 0.00,60.00,Monday
16,3389746.018465958
1528,316512339.8498097
1577,0.0
2,7, 1, 7, 0,13, 0.00,60.00,Monday
16,6119669.833116007
1528,296937582.99212193
1577,0.0
2,7, 1, 7, 0,14, 0.00,60.00,Monday
16,3389746.018465958
1528,286107080.46488357
1577,0.0
2,7, 1, 7, 0,15, 0.00,60.00,Monday
16,3389746.018465958
1528,281800603.0051391
1577,0.0
2,7, 1, 7, 0,16, 0.00,60.00,Monday
16,6119532.713994808
1528,277158529.3109265
1577,0.0
2,7, 1, 7, 0,17, 0.00,60.00,Monday
16,3389746.018465958
1528,273003043.1064354
1577,0.0
2,7, 1, 7, 0,18, 0.00,60.00,Monday
16,6322940.081636878
1528,268150904.42293066
1577,0.0
2,7, 1, 7, 0,19, 0.00,60.00,Monday
16,6323387.111707376
1528,263722345.8657467
1577,0.0
2,7, 1, 7, 0,20, 0.00,60.00,Monday
16,6323296.297129324
1528,375423893.5715381
1577,0.0
2,7, 1, 7, 0,21, 0.00,60.00,Monday
16,3389746.018465958
1528,368887230.0095877
1577,0.0
2,7, 1, 7, 0,22, 0.00,60.00,Monday
16,6291987.374215264
1528,362424877.15578914
1577,0.0
2,7, 1, 7, 0,23, 0.00,60.00,Monday
16,6292165.102591027
1528,355276335.9911345
1577,0.0
2,7, 1, 7, 0,24, 0.00,60.00,Monday
16,5844742.589895297
1528,349446323.9637762
1577,0.0
2,8, 1, 8, 0, 1, 0.00,60.00,Tuesday
16,3798065.0058373823
1528,344250198.18444633
1577,0.0
2,8, 1, 8, 0, 2, 0.00,60.00,Tuesday
16,3389746.018465958
1528,342284957.5667978
1577,0.0
2,8, 1, 8, 0, 3, 0.00,60.00,Tuesday
16,3389746.018465958
1528,341819680.5991709
1577,0.0
2,8, 1, 8, 0, 4, 0.00,60.00,Tuesday
16,6044445.416057239
1528,342636598.2688532
1577,0.0
2,8, 1, 8, 0, 5, 0.00,60.00,Tuesday
16,3389746.018465958
1528,342983717.87102103
1577,0.0
2,8, 1, 8, 0, 6, 0.00,60.00,Tuesday
16,3389746.018465958
1528,342614297.0498838
1577,0.0
2,8, 1, 8, 0, 7, 0.00,60.00,Tuesday
16,6291737.842519994
1528,343797592.88393956
1577,0.0
2,8, 1, 8, 0, 8, 0.00,60.00,Tuesday
16,6292425.395014699
1528,218624808.5797797
1577,0.0
2,8, 1, 8, 0, 9, 0.00,60.00,Tuesday
16,6275988.072438978
1528,208507858.56601167
1577,0.0
2,8, 1, 8, 0,10, 0.00,60.00,Tuesday
16,5555176.062630372
1528,196731622.84743786
1577,0.0
2,8, 1, 8, 0,11, 0.00,60.00,Tuesday
16,4353604.688562684
1528,186345695.2111544
1577,0.0
2,8, 1, 8, 0,12, 0.00,60.00,Tuesday
16,3389746.018465958
1528,180817968.67290783
1577,0.0
2,8, 1, 8, 0,13, 0.00,60.00,Tuesday
16,6119294.617514301
1528,176151890.93582118
1577,0.0
2,8, 1, 8, 0,14, 0.00,60.00,Tuesday
16,3389746.018465958
1528,173052170.99017107
1577,0.0
2,8, 1, 8, 0,15, 0.00,60.00,Tuesday
16,6119648.783068473
1528,165395164.70659304
1577,0.0
2,8, 1, 8, 0,16, 0.00,60.00,Tuesday
16,3389746.018465958
1528,162432601.2716213
1577,0.0
2,8, 1, 8, 0,17, 0.00,60.00,Tuesday
16,5684134.444574321
1528,164389574.31387448
1577,0.0
2,8, 1, 8, 0,18, 0.00,60.00,Tuesday
16,3858044.1512451926
1528,159259675.00658208
1577,0.0
2,8, 1, 8, 0,19, 0.00,60.00,Tuesday
16,6322654.169105267
1528,152249957.5618232
1577,0.0
2,8, 1, 8, 0,20, 0.00,60.00,Tuesday
16,6322748.4969049115
1528,259171270.27385467
1577,0.0
2,8, 1, 8, 0,21, 0.00,60.00,Tuesday
16,6323193.735764543
1528,246149844.78549704
1577,0.0
2,8, 1, 8, 0,22, 0.00,60.00,Tuesday
16,3389746.018465958
1528,231802181.4243939
1577,0.0
2,8, 1, 8, 0,23, 0.00,60.00,Tuesday
16,6291971.677412009
1528,223962144.8614527
1577,0.0
2,8, 1, 8, 0,24, 0.00,60.00,Tuesday
16,6292185.920118848
1528,225059011.0486942
1577,0.0
2,9, 1, 9, 0, 1, 0.00,60.00,Wednesday
16,3389746.018465958
1528,228384546.3557421
1577,0.0
2,9, 1, 9, 0, 2, 0.00,60.00,Wednesday
16,3389746.018465958
1528,238848826.61770302
1577,0.0
2,9, 1, 9, 0, 3, 0.00,60.00,Wednesday
16,6044198.666056221
1528,252472290.5548374
1577,0.0
2,9, 1, 9, 0, 4, 0.00,60.00,Wednesday
16,3389746.018465958
1528,255975800.3047981
1577,0.0
2,9, 1, 9, 0, 5, 0.00,60.00,Wednesday
16,3389746.018465958
1528,244364655.5889303
1577,0.0
2,9, 1, 9, 0, 6, 0.00,60.00,Wednesday
16,3389746.018465958
1528,231868288.9469691
1577,0.0
2,9, 1, 9, 0, 7, 0.00,60.00,Wednesday
16,6292383.715840446
1528,227965407.25027162
1577,0.0
2,9, 1, 9, 0, 8, 0.00,60.00,Wednesday
16,6291721.414887557
1528,120609362.91144586
1577,0.0
2,9, 1, 9, 0, 9, 0.00,60.00,Wednesday
16,6458701.651631594
1528,119922397.82225794
1577,0.0
2,9, 1, 9, 0,10, 0.00,60.00,Wednesday
16,6458191.779356832
1528,110883158.24755138
1577,0.0
2,9, 1, 9, 0,11, 0.00,60.00,Wednesday
16,3389746.018465958
1528,101104354.59950899
1577,0.0
2,9, 1, 9, 0,12, 0.00,60.00,Wednesday
16,6119084.3023692835
1528,90471479.96240404
1577,0.0
2,9, 1, 9, 0,13, 0.00,60.00,Wednesday
16,3389746.018465958
1528,79830442.24985722
1577,0.0
2,9, 1, 9, 0,14, 0.00,60.00,Wednesday
16,3389746.018465958
1528,78319622.34198615
1577,0.0
2,9, 1, 9, 0,15, 0.00,60.00,Wednesday
16,6119680.427526092
1528,81096872.6233587
1577,0.0
2,9, 1, 9, 0,16, 0.00,60.00,Wednesday
16,3389746.018465958
1528,84252311.08728021
1577,0.0
2,9, 1, 9, 0,17, 0.00,60.00,Wednesday
16,6119606.785840688
1528,88013354.41959503
1577,0.0
2,9, 1, 9, 0,18, 0.00,60.00,Wednesday
16,5790764.644985324
1528,90624601.99172273
1577,0.0
2,9, 1, 9, 0,19, 0.00,60.00,Wednesday
16,3921855.054015366
1528,93738576.10901761
1577,0.0
2,9, 1, 9, 0,20, 0.00,60.00,Wednesday
16,6322510.636977098
1528,206773936.956877
1577,0.0
2,9, 1, 9, 0,21, 0.00,60.00,Wednesday
16,6322772.793267338
1528,183921565.30711547
1577,0.0
2,9, 1, 9, 0,22, 0.00,60.00,Wednesday
16,6292377.156517349
1528,164698243.19543293
1577,0.0
2,9, 1, 9, 0,23, 0.00,60.00,Wednesday
16,3389746.018465958
1528,156398866.20072216
1577,0.0
2,9, 1, 9, 0,24, 0.00,60.00,Wednesday
16,6291726.6731196195
1528,153758807.57940495
1577,0.0
2,10, 1,10, 0, 1, 0.00,60.00,Thursday
16,3389746.018465958
1528,156711934.07399458
1577,0.0
2,10, 1,10, 0, 2, 0.00,60.00,Thursday
16,6044400.177880963
1528,163922784.93088028
1577,0.0
2,10, 1,10, 0, 3, 0.00,60.00,Thursday
16,3389746.018465958
1528,186286142.99435043
1577,0.0
2,10, 1,10, 0, 4, 0.00,60.00,Thursday
16,3389746.018465958
1528,197593869.75320753
1577,0.0
2,10, 1,10, 0, 5, 0.00,60.00,Thursday
16,3389746.018465958
1528,198417488.666067
1577,0.0
2,10, 1,10, 0, 6, 0.00,60.00,Thursday
16,6044068.525492417
1528,198802546.50308362
1577,0.0
2,10, 1,10, 0, 7, 0.00,60.00,Thursday
16,3617789.3173448257
1528,199406941.44221243
1577,0.0
2,10, 1,10, 0, 8, 0.00,60.00,Thursday
16,6063320.345632004
1528,92506829.85818169
1577,0.0
2,10, 1,10, 0, 9, 0.00,60.00,Thursday
16,6458927.797258614
1528,101716105.73289584
1577,0.0
2,10, 1,10, 0,10, 0.00,60.00,Thursday
16,6458781.099132202
1528,109905524.14022405
1577,0.0
2,10, 1,10, 0,11, 0.00,60.00,Thursday
16,4817370.871127977
1528,96257050.59710711
1577,0.0
2,10, 1,10, 0,12, 0.00,60.00,Thursday
16,4691419.71113118
1528,86591932.08538455
1577,0.0
2,10, 1,10, 0,13, 0.00,60.00,Thursday
16,3389746.018465958
1528,89241598.84802431
1577,0.0
2,10, 1,10, 0,14, 0.00,60.00,Thursday
16,6119523.576464481
1528,89797621.07987168
1577,0.0
2,10, 1,10, 0,15, 0.00,60.00,Thursday
16,3389746.018465958
1528,91694160.17325601
1577,0.0
2,10, 1,10, 0,16, 0.00,60.00,Thursday
16,6119628.563141513
1528,96716360.66512483
1577,0.0
2,10, 1,10, 0,17, 0.00,60.00,Thursday
16,3389746.018465958
1528,102331407.6350914
1577,0.0
2,10, 1,10, 0,18, 0.00,60.00,Thursday
16,6322866.68337648
1528,116971314.43935364
1577,0.0
2,10, 1,10, 0,19, 0.00,60.00,Thursday
16,6323402.770569446
1528,122279629.98738138
1577,0.0
2,10, 1,10, 0,20, 0.00,60.00,Thursday
16,3389746.018465958
1528,234820857.833679
1577,0.0
2,10, 1,10, 0,21, 0.00,60.00,Thursday
16,6323311.971642967
1528,236151097.09468377
1577,0.0
2,10, 1,10, 0,22, 0.00,60.00,Thursday
16,6291894.837683164
1528,238577047.07523927
1577,0.0
2,10, 1,10, 0,23, 0.00,60.00,Thursday
16,6292306.862185821
1528,240307291.59282434
1577,0.0
2,10, 1,10, 0,24, 0.00,60.00,Thursday
16,3389746.018465958
1528,230593545.35835347
1577,0.0
2,11, 1,11, 0, 1, 0.00,60.00,Friday
16,6044397.3844767455
1528,222641860.71169952
1577,0.0
2,11, 1,11, 0, 2, 0.00,60.00,Friday
16,3389746.018465958
1528,225111216.9732752
1577,0.0
2,11, 1,11, 0, 3, 0.00,60.00,Friday
16,3389746.018465958
1528,230548527.72268167
1577,0.0
2,11, 1,11, 0, 4, 0.00,60.00,Friday
16,3849206.0104324324
1528,236058789.81710425
1577,0.0
2,11, 1,11, 0, 5, 0.00,60.00,Friday
16,5584651.635403151
1528,239308610.19800314
1577,0.0
2,11, 1,11, 0, 6, 0.00,60.00,Friday
16,3389746.018465958
1528,237711780.79136074
1577,0.0
2,11, 1,11, 0, 7, 0.00,60.00,Friday
16,6292356.3015461415
1528,236234986.5977538
1577,0.0
2,11, 1,11, 0, 8, 0.00,60.00,Friday
16,4562951.630471926
1528,123701657.01059633
1577,0.0
2,11, 1,11, 0, 9, 0.00,60.00,Friday
16,5554007.846536527
1528,131587188.57134205
1577,0.0
2,11, 1,11, 0,10, 0.00,60.00,Friday
16,6123381.775142264
1528,132514350.11869702
1577,0.0
2,11, 1,11, 0,11, 0.00,60.00,Friday
16,6119605.895558684
1528,113925613.86044265
1577,0.0
2,11, 1,11, 0,12, 0.00,60.00,Friday
16,3389746.018465958
1528,113225401.13386616
1577,0.0
2,11, 1,11, 0,13, 0.00,60.00,Friday
16,6119053.066871934
1528,114521978.29663691
1577,0.0
2,11, 1,11, 0,14, 0.00,60.00,Friday
16,3389746.018465958
1528,115621544.33904648
1577,0.0
2,11, 1,11, 0,15, 0.00,60.00,Friday
16,6119412.5992283635
1528,109010142.30359294
1577,0.0
2,11, 1,11, 0,16, 0.00,60.00,Friday
16,3389746.018465958
1528,121194218.01721558
1577,0.0
2,11, 1,11, 0,17, 0.00,60.00,Friday
16,3389746.018465958
1528,135471593.08708775
1577,0.0
2,11, 1,11, 0,18, 0.00,60.00,Friday
16,6323350.714730981
1528,133284635.37032932
1577,0.0
2,11, 1,11, 0,19, 0.00,60.00,Friday
16,6323259.923122561
1528,133092329.58438681
1577,0.0
2,11, 1,11, 0,20, 0.00,60.00,Friday
16,6322812.3739446765
1528,247141140.53160128
1577,0.0
2,11, 1,11, 0,21, 0.00,60.00,Friday
16,4924603.89086815
1528,241527747.39247704
1577,0.0
2,11, 1,11, 0,22, 0.00,60.00,Friday
16,4772854.272042596
1528,239543845.34091043
1577,0.0
2,11, 1,11, 0,23, 0.00,60.00,Friday
16,6292395.379046161
1528,249029664.45589313
1577,0.0
2,11, 1,11, 0,24, 0.00,60.00,Friday
16,6291717.283685744
1528,244339343.30954903
1577,0.0
2,12, 1,12, 0, 1, 0.00,60.00,Saturday
16,3389746.018465958
1528,235331858.27690083
1577,0.0
2,12, 1,12, 0, 2, 0.00,60.00,Saturday
16,3389746.018465958
1528,231413345.62285313
1577,0.0
2,12, 1,12, 0, 3, 0.00,60.00,Saturday
16,3442986.322186902
1528,227606143.28755692
1577,0.0
2,12, 1,12, 0, 4, 0.00,60.00,Saturday
16,5991162.4728260655
1528,221512920.7843355
1577,0.0
2,12, 1,12, 0, 5, 0.00,60.00,Saturday
16,3389746.018465958
1528,215208145.31899533
1577,0.0
2,12, 1,12, 0, 6, 0.00,60.00,Saturday
16,3389746.018465958
1528,213111748.13768536
1577,0.0
2,12, 1,12, 0, 7, 0.00,60.00,Saturday
16,6292037.6628247965
1528,214090284.75127637
1577,0.0
2,12, 1,12, 0, 8, 0.00,60.00,Saturday
16,6292105.370866006
1528,99277214.49319921
1577,0.0
2,12, 1,12, 0, 9, 0.00,60.00,Saturday
16,6458336.68252258
1528,102255080.1269762
1577,0.0
2,12, 1,12, 0,10, 0.00,60.00,Saturday
16,6458944.987619011
1528,104555975.8820245
1577,0.0
2,12, 1,12, 0,11, 0.00,60.00,Saturday
16,3389746.018465958
1528,116648389.97311148
1577,0.0
2,12, 1,12, 0,12, 0.00,60.00,Saturday
16,3389746.018465958
1528,120561604.19793218
1577,0.0
2,12, 1,12, 0,13, 0.00,60.00,Saturday
16,6119684.451539
1528,114264182.56688955
1577,0.0
2,12, 1,12, 0,14, 0.00,60.00,Saturday
16,3389746.018465958
1528,117693413.93041016
1577,0.0
2,12, 1,12, 0,15, 0.00,60.00,Saturday
16,6119610.812928535
1528,111235518.55948187
1577,0.0
2,12, 1,12, 0,16, 0.00,60.00,Saturday
16,3389746.018465958
1528,109073589.30298325
1577,0.0
2,12, 1,12, 0,17, 0.00,60.00,Saturday
16,6119063.860531606
1528,115257036.81576468
1577,0.0
2,12, 1,12, 0,18, 0.00,60.00,Saturday
16,3389746.018465958
1528,124729935.81765164
1577,0.0
2,12, 1,12, 0,19, 0.00,60.00,Saturday
16,6323358.367930894
1528,130430119.71806392
1577,0.0
2,12, 1,12, 0,20, 0.00,60.00,Saturday
16,6323267.52950862
1528,244251461.62468874
1577,0.0
2,12, 1,12, 0,21, 0.00,60.00,Saturday
16,6322842.405793258
1528,242695104.52865523
1577,0.0
2,12, 1,12, 0,22, 0.00,60.00,Saturday
16,3856605.248583889
1528,242500897.09033436
1577,0.0
2,12, 1,12, 0,23, 0.00,60.00,Saturday
16,5825217.565947298
1528,248013842.70862064
1577,0.0
2,12, 1,12, 0,24, 0.00,60.00,Saturday
16,6292065.016002738
1528,256732080.6453449
1577,0.0
2,13, 1,13, 0, 1, 0.00,60.00,Sunday
16,3389746.018465958
1528,261780524.62605256
1577,0.0
2,13, 1,13, 0, 2, 0.00,60.00,Sunday
16,3389746.018465958
1528,262976092.44755393
1577,0.0
2,13, 1,13, 0, 3, 0.00,60.00,Sunday
16,6044378.682360483
1528,257922397.82529515
1577,0.0
2,13, 1,13, 0, 4, 0.00,60.00,Sunday
16,3389746.018465958
1528,260827400.280596
1577,0.0
2,13, 1,13, 0, 5, 0.00,60.00,Sunday
16,3389746.018465958
1528,267859313.97255665
1577,0.0
2,13, 1,13, 0, 6, 0.00,60.00,Sunday
16,6044215.252742936
1528,273489060.2096912
1577,0.0
2,13, 1,13, 0, 7, 0.00,60.00,Sunday
16,3389746.018465958
1528,273133624.1302025
1577,0.0
2,13, 1,13, 0, 8, 0.00,60.00,Sunday
16,6291642.288949329
1528,152158729.57759407
1577,0.0
2,13, 1,13, 0, 9, 0.00,60.00,Sunday
16,6458141.369415479
1528,156906068.33143085
1577,0.0
2,13, 1,13, 0,10, 0.00,60.00,Sunday
16,6458277.492011225
1528,153646019.14411694
1577,0.0
2,13, 1,13, 0,11, 0.00,60.00,Sunday
16,3389746.018465958
1528,122970131.15383166
1577,0.0
2,13, 1,13, 0,12, 0.00,60.00,Sunday
16,6119492.633556414
1528,101493522.41887718
1577,0.0
2,13, 1,13, 0,13, 0.00,60.00,Sunday
16,3389746.018465958
1528,106569176.58715418
1577,0.0
2,13, 1,13, 0,14, 0.00,60.00,Sunday
16,6119630.956212031
1528,111858202.71882108
1577,0.0
2,13, 1,13, 0,15, 0.00,60.00,Sunday
16,3389746.018465958
1528,113417498.60139593
1577,0.0
2,13, 1,13, 0,16, 0.00,60.00,Sunday
16,5386240.896993772
1528,114484829.86825931
1577,0.0
2,13, 1,13, 0,17, 0.00,60.00,Sunday
16,4122658.5646128715
1528,114758724.27492727
1577,0.0
2,13, 1,13, 0,18, 0.00,60.00,Sunday
16,6322751.124249783
1528,116119700.58557113
1577,0.0
2,13, 1,13, 0,19, 0.00,60.00,Sunday
16,4776289.0429411605
1528,116978927.03405328
1577,0.0
2,13, 1,13, 0,20, 0.00,60.00,Sunday
16,4935839.4670886155
1528,231232112.2587699
1577,0.0
2,13, 1,13, 0,21, 0.00,60.00,Sunday
16,6322904.654276824
1528,227778000.72039717
1577,0.0
2,13, 1,13, 0,22, 0.00,60.00,Sunday
16,6292379.627737657
1528,225889278.91188678
1577,0.0
2,13, 1,13, 0,23, 0.00,60.00,Sunday
16,4769988.3469941765
1528,224087393.55037203
1577,0.0
2,13, 1,13, 0,24, 0.00,60.00,Sunday
16,4911482.101308362
1528,222283141.4865758
1577,0.0
2,14, 1,14, 0, 1, 0.00,60.00,Monday
16,5898935.682171482
1528,221071296.46007177
1577,0.0
2,14, 1,14, 0, 2, 0.00,60.00,Monday
16,3535087.135852117
1528,219468337.6503581
1577,0.0
2,14, 1,14, 0, 3, 0.00,60.00,Monday
16,3389746.018465958
1528,217221219.6554983
1577,0.0
2,14, 1,14, 0, 4, 0.00,60.00,Monday
16,3389746.018465958
1528,216193141.52949336
1577,0.0
2,14, 1,14, 0, 5, 0.00,60.00,Monday
16,6044310.08208524
1528,214725062.32338244
1577,0.0
2,14, 1,14, 0, 6, 0.00,60.00,Monday
16,3389746.018465958
1528,212576146.04922506
1577,0.0
2,14, 1,14, 0, 7, 0.00,60.00,Monday
16,6292227.47339976
1528,211385713.9007349
1577,0.0
2,14, 1,14, 0, 8, 0.00,60.00,Monday
16,3389746.018465958
1528,94804191.9076668
1577,0.0
2,14, 1,14, 0, 9, 0.00,60.00,Monday
16,6458617.987410665
1528,93025749.38180798
1577,0.0
2,14, 1,14, 0,10, 0.00,60.00,Monday
16,6458165.910596817
1528,90431467.62869059
1577,0.0
2,14, 1,14, 0,11, 0.00,60.00,Monday
16,6119242.26209666
1528,87467573.11622986
1577,0.0
2,14, 1,14, 0,12, 0.00,60.00,Monday
16,3389746.018465958
1528,84318443.2469323
1577,0.0