Program Version,EnergyPlus, Version 23.2.0-7636e6b3e9, YMD=2025.02.02 11:17
1,5,Environment Title[],Latitude[deg],Longitude[deg],Time Zone[],Elevation[m]
2,8,Day of Simulation[],Month[],Day of Month[],DST Indicator[1=yes 0=no],Hour[],StartMinute[],EndMinute[],DayType
3,5,Cumulative Day of Simulation[],Month[],Day of Month[],DST Indicator[1=yes 0=no],DayType  ! When Daily Report Variables Requested
4,2,Cumulative Days of Simulation[],Month[]  ! When Monthly Report Variables Requested
5,1,Cumulative Days of Simulation[] ! When Run Period Report Variables Requested
6,1,Calendar Year of Simulation[] ! When Annual Report Variables Requested
7,7,Environment,Site Outdoor Air Drybulb Temperature [C] !Daily [Value,Min,Hour,Minute,Max,Hour,Minute]
8,7,Environment,Site Outdoor Air Dewpoint Temperature [C] !Daily [Value,Min,Hour,Minute,Max,Hour,Minute]
9,7,Environment,Site Outdoor Air Wetbulb Temperature [C] !Daily [Value,Min,Hour,Minute,Max,Hour,Minute]
10,7,Environment,Site Diffuse Solar Radiation Rate per Area [W/m2] !Daily [Value,Min,Hour,Minute,Max,Hour,Minute]
11,7,Environment,Site Direct Solar Radiation Rate per Area [W/m2] !Daily [Value,Min,Hour,Minute,Max,Hour,Minute]
12,7,Environment,Site Solar Azimuth Angle [deg] !Daily [Value,Min,Hour,Minute,Max,Hour,Minute]
13,7,Environment,Site Solar Altitude Angle [deg] !Daily [Value,Min,Hour,Minute,Max,Hour,Minute]
2844,7,MYDHW_0_WATERHEATER,Water Heater Heating Energy [J] !Daily [Value,Min,Hour,Minute,Max,Hour,Minute]
2983,7,SCENARIO_0_WATERHEATER,Water Heater Heating Energy [J] !Daily [Value,Min,Hour,Minute,Max,Hour,Minute]
1528,1,Heating:EnergyTransfer [J] !Hourly
1577,1,Cooling:EnergyTransfer [J] !Hourly
16,1,Electricity:Facility [J] !Hourly
End of Data Dictionary
1,RUN PERIOD 1,  52.46,   5.52,   1.00,  -3.90
2,1, 1, 1, 0, 1, 0.00,60.00,Tuesday
16,3307854.1251308587
1528,215759225.96781647
1577,0.0
2,1, 1, 1, 0, 2, 0.00,60.00,Tuesday
16,3307854.1251308587
1528,207710319.7927696
1577,0.0
2,1, 1, 1, 0, 3, 0.00,60.00,Tuesday
16,3307854.1251308587
1528,210683176.15238768
1577,0.0
2,1, 1, 1, 0, 4, 0.00,60.00,Tuesday
16,5962312.361193469
1528,213241569.81741455
1577,0.0
2,1, 1, 1, 0, 5, 0.00,60.00,Tuesday
16,3307854.1251308587
1528,215140908.27983657
1577,0.0
2,1, 1, 1, 0, 6, 0.00,60.00,Tuesday
16,3307854.1251308587
1528,218202406.48291132
1577,0.0
2,1, 1, 1, 0, 7, 0.00,60.00,Tuesday
16,6209875.057388863
1528,221820473.87729397
1577,0.0
2,1, 1, 1, 0, 8, 0.00,60.00,Tuesday
16,6210549.396979986
1528,117068691.72174817
1577,0.0
2,1, 1, 1, 0, 9, 0.00,60.00,Tuesday
16,6296338.861855149
1528,126957861.97232945
1577,0.0
2,1, 1, 1, 0,10, 0.00,60.00,Tuesday
16,5473424.525444504
1528,127170350.35475212
1577,0.0
2,1, 1, 1, 0,11, 0.00,60.00,Tuesday
16,4180827.6363176527
1528,131119597.06626436
1577,0.0
2,1, 1, 1, 0,12, 0.00,60.00,Tuesday
16,3307854.1251308587
1528,138800650.905733
1577,0.0
2,1, 1, 1, 0,13, 0.00,60.00,Tuesday
16,6037353.716647702
1528,142691161.0052954
1577,0.0
2,1, 1, 1, 0,14, 0.00,60.00,Tuesday
16,3307854.1251308587
1528,146234866.91175032
1577,0.0
2,1, 1, 1, 0,15, 0.00,60.00,Tuesday
16,6037762.328901469
1528,148029108.35715947
1577,0.0
2,1, 1, 1, 0,16, 0.00,60.00,Tuesday
16,3307854.1251308587
1528,151881362.67127305
1577,0.0
2,1, 1, 1, 0,17, 0.00,60.00,Tuesday
16,5693158.2894654665
1528,149800085.19672775
1577,0.0
2,1, 1, 1, 0,18, 0.00,60.00,Tuesday
16,3678392.1685473397
1528,143941514.43343332
1577,0.0
2,1, 1, 1, 0,19, 0.00,60.00,Tuesday
16,6240775.939541736
1528,137585070.29548046
1577,0.0
2,1, 1, 1, 0,20, 0.00,60.00,Tuesday
16,6240824.152717466
1528,239450821.94189724
1577,0.0
2,1, 1, 1, 0,21, 0.00,60.00,Tuesday
16,6241223.104875667
1528,227370139.48770845
1577,0.0
2,1, 1, 1, 0,22, 0.00,60.00,Tuesday
16,3307854.1251308587
1528,221656281.01062363
1577,0.0
2,1, 1, 1, 0,23, 0.00,60.00,Tuesday
16,6210143.005342977
1528,226646887.87999392
1577,0.0
2,1, 1, 1, 0,24, 0.00,60.00,Tuesday
16,6210216.238442161
1528,232602723.0726785
1577,0.0
3,1, 1, 1, 0,Tuesday
7,2.891666666666666,1.4,16,60,4.2, 1,60
8,-0.03749999999999998,-2.5,10,60,2.1,24,60
9,1.854739388525906,0.4001495373206364,13,60,3.0998073170807516, 1,60
10,17.307291666666668,0.0, 1,15,86.0,12,30
11,26.854166666666668,0.0, 1,15,152.0,10,30
12,171.9210012821981,1.7466514206994332, 1,45,341.00180793165543,24,60
13,-20.325946072972584,-60.625898049216175, 1,45,14.446671545683287,13,45
2844,33574828.41602885,0.0, 1,15,2689636.263051862, 9,60
2983,0.0,0.0, 1,15,0.0, 1,15
2,2, 1, 2, 0, 1, 0.00,60.00,Wednesday
16,3307854.1251308587
1528,235321199.6666718
1577,0.0
2,2, 1, 2, 0, 2, 0.00,60.00,Wednesday
16,3307854.1251308587
1528,230503547.04919085
1577,0.0
2,2, 1, 2, 0, 3, 0.00,60.00,Wednesday
16,5962131.624635729
1528,229261715.59555382
1577,0.0
2,2, 1, 2, 0, 4, 0.00,60.00,Wednesday
16,3307854.1251308587
1528,234068997.7100636
1577,0.0
2,2, 1, 2, 0, 5, 0.00,60.00,Wednesday
16,3307854.1251308587
1528,225747108.71523473
1577,0.0
2,2, 1, 2, 0, 6, 0.00,60.00,Wednesday
16,3307854.1251308587
1528,219522695.04669997
1577,0.0
2,2, 1, 2, 0, 7, 0.00,60.00,Wednesday
16,6210503.628761161
1528,215904051.4779915
1577,0.0
2,2, 1, 2, 0, 8, 0.00,60.00,Wednesday
16,6209825.384509138
1528,97427814.13926479
1577,0.0
2,2, 1, 2, 0, 9, 0.00,60.00,Wednesday
16,6376875.662206308
1528,96199451.2369594
1577,0.0
2,2, 1, 2, 0,10, 0.00,60.00,Wednesday
16,6376323.192703918
1528,98587998.69489606
1577,0.0
2,2, 1, 2, 0,11, 0.00,60.00,Wednesday
16,3307854.1251308587
1528,101214654.76669633
1577,0.0
2,2, 1, 2, 0,12, 0.00,60.00,Wednesday
16,6037161.211395578
1528,111579624.74413806
1577,0.0
2,2, 1, 2, 0,13, 0.00,60.00,Wednesday
16,3307854.1251308587
1528,115289763.10584033
1577,0.0
2,2, 1, 2, 0,14, 0.00,60.00,Wednesday
16,3328205.606662635
1528,116693284.61674026
1577,0.0
2,2, 1, 2, 0,15, 0.00,60.00,Wednesday
16,6017428.618511122
1528,104869718.86181386
1577,0.0
2,2, 1, 2, 0,16, 0.00,60.00,Wednesday
16,3307854.1251308587
1528,100761522.93680939
1577,0.0
2,2, 1, 2, 0,17, 0.00,60.00,Wednesday
16,6037726.139756288
1528,105785903.60432273
1577,0.0
2,2, 1, 2, 0,18, 0.00,60.00,Wednesday
16,5806339.076117152
1528,112239682.37116912
1577,0.0
2,2, 1, 2, 0,19, 0.00,60.00,Wednesday
16,3742552.2145824223
1528,128115230.42345177
1577,0.0
2,2, 1, 2, 0,20, 0.00,60.00,Wednesday
16,6240588.5697484175
1528,242786924.45210865
1577,0.0
2,2, 1, 2, 0,21, 0.00,60.00,Wednesday
16,6240844.608392031
1528,234373061.52133888
1577,0.0
2,2, 1, 2, 0,22, 0.00,60.00,Wednesday
16,6210497.084743374
1528,230143734.59118503
1577,0.0
2,2, 1, 2, 0,23, 0.00,60.00,Wednesday
16,3307854.1251308587
1528,233505836.82189327
1577,0.0
2,2, 1, 2, 0,24, 0.00,60.00,Wednesday
16,6209826.802814352
1528,239522427.48172325
1577,0.0
3,2, 1, 2, 0,Wednesday
7,3.686458333333334,2.7,19,60,4.7,15,60
8,0.859375,-2.5,24,60,3.0, 8,60
9,2.7411140405471186,1.1746816380023941, 1,60,3.8128607493951674, 8,60
10,16.630208333333332,0.0, 1,15,76.0,12,30
11,62.854166666666664,0.0, 1,15,310.0,15,30
12,171.8131188905313,1.5259563868488346, 1,45,340.83120702053344,24,60
13,-20.25473323294449,-60.545572589949266, 1,45,14.530053212951353,13,45
2844,33650115.79371907,0.0, 1,15,2756882.056070529, 9,45
2983,0.0,0.0, 1,15,0.0, 1,15
2,3, 1, 3, 0, 1, 0.00,60.00,Thursday
16,3307854.1251308587
1528,250463530.42943937
1577,0.0
2,3, 1, 3, 0, 2, 0.00,60.00,Thursday
16,5962519.279396024
1528,257242191.90871608
1577,0.0
2,3, 1, 3, 0, 3, 0.00,60.00,Thursday
16,3307854.1251308587
1528,257865010.89620498
1577,0.0
2,3, 1, 3, 0, 4, 0.00,60.00,Thursday
16,3307854.1251308587
1528,263784548.7228388
1577,0.0
2,3, 1, 3, 0, 5, 0.00,60.00,Thursday
16,3307854.1251308587
1528,263776693.04001266
1577,0.0
2,3, 1, 3, 0, 6, 0.00,60.00,Thursday
16,5962044.380293202
1528,267627901.03446805
1577,0.0
2,3, 1, 3, 0, 7, 0.00,60.00,Thursday
16,3640999.4345384566
1528,274899471.2081085
1577,0.0
2,3, 1, 3, 0, 8, 0.00,60.00,Thursday
16,5876317.114609295
1528,164006371.80968216
1577,0.0
2,3, 1, 3, 0, 9, 0.00,60.00,Thursday
16,6377048.235662098
1528,170973728.9391515
1577,0.0
2,3, 1, 3, 0,10, 0.00,60.00,Thursday
16,6376901.558521583
1528,166987323.31064016
1577,0.0
2,3, 1, 3, 0,11, 0.00,60.00,Thursday
16,4923883.823217018
1528,151490745.32236162
1577,0.0
2,3, 1, 3, 0,12, 0.00,60.00,Thursday
16,4421135.942944681
1528,142520045.20684904
1577,0.0
2,3, 1, 3, 0,13, 0.00,60.00,Thursday
16,3307854.1251308587
1528,140366632.420112
1577,0.0
2,3, 1, 3, 0,14, 0.00,60.00,Thursday
16,6037494.900832992
1528,147126531.1924357
1577,0.0
2,3, 1, 3, 0,15, 0.00,60.00,Thursday
16,3307854.1251308587
1528,149443386.44181156
1577,0.0
2,3, 1, 3, 0,16, 0.00,60.00,Thursday
16,6037747.946559132
1528,164042525.24606028
1577,0.0
2,3, 1, 3, 0,17, 0.00,60.00,Thursday
16,3307854.1251308587
1528,181089083.6374793
1577,0.0
2,3, 1, 3, 0,18, 0.00,60.00,Thursday
16,6240926.030281893
1528,192954025.70084852
1577,0.0
2,3, 1, 3, 0,19, 0.00,60.00,Thursday
16,6241450.315133472
1528,204779931.1883376
1577,0.0
2,3, 1, 3, 0,20, 0.00,60.00,Thursday
16,3307854.1251308587
1528,318772971.72584987
1577,0.0
2,3, 1, 3, 0,21, 0.00,60.00,Thursday
16,6241431.996947584
1528,306381873.2446345
1577,0.0
2,3, 1, 3, 0,22, 0.00,60.00,Thursday
16,6210056.103224898
1528,296388161.0677684
1577,0.0
2,3, 1, 3, 0,23, 0.00,60.00,Thursday
16,6210327.641562646
1528,285047711.01078784
1577,0.0
2,3, 1, 3, 0,24, 0.00,60.00,Thursday
16,3307854.1251308587
1528,274542065.4318975
1577,0.0
3,3, 1, 3, 0,Thursday
7,1.1666666666666665,-1.0,19,60,2.775, 1,15
8,-0.6007504992247794,-2.2,13,60,1.3,24,60
9,0.3890060654580482,-1.321738782587282,19,60,2.1129291271731074, 1,15
10,14.333333333333334,0.0, 1,15,65.0,13,30
11,122.921875,0.0, 1,15,558.0,13,30
12,171.70635220439564,1.3083254005832814, 1,45,340.6669445746221,24,60
13,-20.176959693862347,-60.45738645598138, 1,45,14.6208584194948,13,45
2844,33428225.54408589,0.0, 1,15,2762274.6994781154, 9,30
2983,0.0,0.0, 1,15,0.0, 1,15
2,4, 1, 4, 0, 1, 0.00,60.00,Friday
16,5962516.527272236
1528,310521404.5563056
1577,0.0
2,4, 1, 4, 0, 2, 0.00,60.00,Friday
16,3307854.1251308587
1528,337034479.0940342
1577,0.0
2,4, 1, 4, 0, 3, 0.00,60.00,Friday
16,3307854.1251308587
1528,340713959.3707398
1577,0.0
2,4, 1, 4, 0, 4, 0.00,60.00,Friday
16,4071590.7123971935
1528,345675858.1129247
1577,0.0
2,4, 1, 4, 0, 5, 0.00,60.00,Friday
16,5198335.299210053
1528,350200619.7458955
1577,0.0
2,4, 1, 4, 0, 6, 0.00,60.00,Friday
16,3307854.1251308587
1528,354010251.18757147
1577,0.0
2,4, 1, 4, 0, 7, 0.00,60.00,Friday
16,6210476.268197753
1528,359447149.95805967
1577,0.0
2,4, 1, 4, 0, 8, 0.00,60.00,Friday
16,4586113.250854761
1528,239211580.13099754
1577,0.0
2,4, 1, 4, 0, 9, 0.00,60.00,Friday
16,5472129.883326223
1528,233476743.66183564
1577,0.0
2,4, 1, 4, 0,10, 0.00,60.00,Friday
16,5930312.812391585
1528,226533172.7717159
1577,0.0
2,4, 1, 4, 0,11, 0.00,60.00,Friday
16,6037730.521949618
1528,219240583.312845
1577,0.0
2,4, 1, 4, 0,12, 0.00,60.00,Friday
16,3307854.1251308587
1528,211857294.43790752
1577,0.0
2,4, 1, 4, 0,13, 0.00,60.00,Friday
16,6037214.664784673
1528,204472222.99700326
1577,0.0
2,4, 1, 4, 0,14, 0.00,60.00,Friday
16,3307854.1251308587
1528,205527420.18652433
1577,0.0
2,4, 1, 4, 0,15, 0.00,60.00,Friday
16,6037355.028864188
1528,211720280.68309158
1577,0.0
2,4, 1, 4, 0,16, 0.00,60.00,Friday
16,3307854.1251308587
1528,218134585.3846105
1577,0.0
2,4, 1, 4, 0,17, 0.00,60.00,Friday
16,3307854.1251308587
1528,225768199.24921626
1577,0.0
2,4, 1, 4, 0,18, 0.00,60.00,Friday
16,6241476.243976023
1528,232665962.89041716
1577,0.0
2,4, 1, 4, 0,19, 0.00,60.00,Friday
16,6241385.465801765
1528,238756445.51922327
1577,0.0
2,4, 1, 4, 0,20, 0.00,60.00,Friday
16,6240992.4661136195
1528,368647281.6638533
1577,0.0
2,4, 1, 4, 0,21, 0.00,60.00,Friday
16,4985362.997386427
1528,376018973.9037517
1577,0.0
2,4, 1, 4, 0,22, 0.00,60.00,Friday
16,4549824.518903139
1528,378963624.99828714
1577,0.0
2,4, 1, 4, 0,23, 0.00,60.00,Friday
16,6210519.397218786
1528,391863848.7288659
1577,0.0
2,4, 1, 4, 0,24, 0.00,60.00,Friday
16,6209830.729569839
1528,399637291.06201684
1577,0.0
3,4, 1, 4, 0,Friday
7,-2.370833333333333,-5.0,23,60,0.5999999999999999, 1,15
8,-3.617708333333334,-7.7,24,60,0.3750000000000001, 1,15
9,-2.8442852708335775,-5.828734757976214,24,60,0.4861570244684519, 1,15
10,14.375,0.0, 1,15,66.0,13,30
11,129.13541666666666,0.0, 1,15,576.0,13,30
12,171.60081020210077,1.0940828941618326, 1,45,340.50922888156305,24,60
13,-20.09265613455602,-60.36138875158809, 1,45,14.71905019080346,13,45
2844,35990681.99489395,0.0, 1,15,2640259.906960648,18,15
2983,0.0,0.0, 1,15,0.0, 1,15
2,5, 1, 5, 0, 1, 0.00,60.00,Saturday
16,3307854.1251308587
1528,397684675.72929204
1577,0.0
2,5, 1, 5, 0, 2, 0.00,60.00,Saturday
16,3307854.1251308587
1528,397619703.2755339
1577,0.0
2,5, 1, 5, 0, 3, 0.00,60.00,Saturday
16,3768229.6421452533
1528,399257129.3828532
1577,0.0
2,5, 1, 5, 0, 4, 0.00,60.00,Saturday
16,5501843.683285366
1528,400938503.6495828
1577,0.0
2,5, 1, 5, 0, 5, 0.00,60.00,Saturday
16,3307854.1251308587
1528,402653905.5181371
1577,0.0
2,5, 1, 5, 0, 6, 0.00,60.00,Saturday
16,3307854.1251308587
1528,404398652.4190554
1577,0.0
2,5, 1, 5, 0, 7, 0.00,60.00,Saturday
16,6210062.422058074
1528,407986197.1379075
1577,0.0
2,5, 1, 5, 0, 8, 0.00,60.00,Saturday
16,6210318.118586174
1528,286250881.1967562
1577,0.0
2,5, 1, 5, 0, 9, 0.00,60.00,Saturday
16,6376395.879178671
1528,279063637.9860835
1577,0.0
2,5, 1, 5, 0,10, 0.00,60.00,Saturday
16,6377058.138732496
1528,271102173.9994836
1577,0.0
2,5, 1, 5, 0,11, 0.00,60.00,Saturday
16,3307854.1251308587
1528,262309688.3964684
1577,0.0
2,5, 1, 5, 0,12, 0.00,60.00,Saturday
16,3459243.2187178163
1528,252715007.12127864
1577,0.0
2,5, 1, 5, 0,13, 0.00,60.00,Saturday
16,5886278.586388693
1528,244370364.27240905
1577,0.0
2,5, 1, 5, 0,14, 0.00,60.00,Saturday
16,3307854.1251308587
1528,242835776.55409247
1577,0.0
2,5, 1, 5, 0,15, 0.00,60.00,Saturday
16,6037733.981092442
1528,246232274.62959644
1577,0.0
2,5, 1, 5, 0,16, 0.00,60.00,Saturday
16,3307854.1251308587
1528,249326285.37500197
1577,0.0
2,5, 1, 5, 0,17, 0.00,60.00,Saturday
16,6037232.069296179
1528,251646227.08350444
1577,0.0
2,5, 1, 5, 0,18, 0.00,60.00,Saturday
16,3307854.1251308587
1528,254938298.7598971
1577,0.0
2,5, 1, 5, 0,19, 0.00,60.00,Saturday
16,6241482.405782948
1528,257655198.31588572
1577,0.0
2,5, 1, 5, 0,20, 0.00,60.00,Saturday
16,6241391.5823494075
1528,373834305.2064285
1577,0.0
2,5, 1, 5, 0,21, 0.00,60.00,Saturday
16,6241021.00257051
1528,371807016.6965259
1577,0.0
2,5, 1, 5, 0,22, 0.00,60.00,Saturday
16,3914813.2945225993
1528,370419225.64191896
1577,0.0
2,5, 1, 5, 0,23, 0.00,60.00,Saturday
16,5603137.219435662
1528,367767404.0823557
1577,0.0
2,5, 1, 5, 0,24, 0.00,60.00,Saturday
16,6210272.315891755
1528,366954859.6572417
1577,0.0
3,5, 1, 5, 0,Saturday
7,-4.088541666666665,-5.5, 7,60,-2.8,13,60
8,-7.080208333333332,-7.45, 1,15,-6.7, 1,60
9,-5.141229228510597,-6.135298049949361, 7,60,-4.298956651781032,13,60
10,14.5703125,0.0, 1,15,65.0,13,30
11,132.4921875,0.0, 1,15,603.0,13,30
12,171.49660012976298,0.8835410953785034, 1,45,340.35825202416595,24,60
13,-20.001856138640335,-60.257633494339274, 1,45,14.82458830946985,13,45
2844,33651762.80214628,0.0, 1,15,2753563.2211131616,10,60
2983,0.0,0.0, 1,15,0.0, 1,15
2,6, 1, 6, 0, 1, 0.00,60.00,Sunday
16,3307854.1251308587
1528,366262505.4729703
1577,0.0
2,6, 1, 6, 0, 2, 0.00,60.00,Sunday
16,3307854.1251308587
1528,368228032.1968081
1577,0.0
2,6, 1, 6, 0, 3, 0.00,60.00,Sunday
16,5962514.291412943
1528,370564627.07907254
1577,0.0
2,6, 1, 6, 0, 4, 0.00,60.00,Sunday
16,3307854.1251308587
1528,373434323.58143854
1577,0.0
2,6, 1, 6, 0, 5, 0.00,60.00,Sunday
16,3307854.1251308587
1528,377077566.64004856
1577,0.0
2,6, 1, 6, 0, 6, 0.00,60.00,Sunday
16,5962096.9850965915
1528,379513828.9133279
1577,0.0
2,6, 1, 6, 0, 7, 0.00,60.00,Sunday
16,3307854.1251308587
1528,384182679.0933905
1577,0.0
2,6, 1, 6, 0, 8, 0.00,60.00,Sunday
16,6209704.320014844
1528,267512719.4896708
1577,0.0
2,6, 1, 6, 0, 9, 0.00,60.00,Sunday
16,6376266.184555657
1528,265972067.44015467
1577,0.0
2,6, 1, 6, 0,10, 0.00,60.00,Sunday
16,6376344.613844738
1528,264495293.25173533
1577,0.0
2,6, 1, 6, 0,11, 0.00,60.00,Sunday
16,3307854.1251308587
1528,262160071.6258691
1577,0.0
2,6, 1, 6, 0,12, 0.00,60.00,Sunday
16,6037428.962949979
1528,258891434.607994
1577,0.0
2,6, 1, 6, 0,13, 0.00,60.00,Sunday
16,3307854.1251308587
1528,255550868.67385945
1577,0.0
2,6, 1, 6, 0,14, 0.00,60.00,Sunday
16,6037754.196758286
1528,252200878.84891146
1577,0.0
2,6, 1, 6, 0,15, 0.00,60.00,Sunday
16,3307854.1251308587
1528,248797750.0939926
1577,0.0
2,6, 1, 6, 0,16, 0.00,60.00,Sunday
16,5557233.807626426
1528,246607058.82258058
1577,0.0
2,6, 1, 6, 0,17, 0.00,60.00,Sunday
16,3787997.176362046
1528,243908572.94510755
1577,0.0
2,6, 1, 6, 0,18, 0.00,60.00,Sunday
16,6240912.732034622
1528,240419225.72274068
1577,0.0
2,6, 1, 6, 0,19, 0.00,60.00,Sunday
16,4825656.9936961625
1528,236897630.47913057
1577,0.0
2,6, 1, 6, 0,20, 0.00,60.00,Sunday
16,4722735.657399732
1528,350864351.3972702
1577,0.0
2,6, 1, 6, 0,21, 0.00,60.00,Sunday
16,6240942.907247412
1528,349332850.696335
1577,0.0
2,6, 1, 6, 0,22, 0.00,60.00,Sunday
16,6210503.619197988
1528,348378941.848253
1577,0.0
2,6, 1, 6, 0,23, 0.00,60.00,Sunday
16,4828893.560225114
1528,346259865.0165949
1577,0.0
2,6, 1, 6, 0,24, 0.00,60.00,Sunday
16,4688785.952314966
1528,345881198.97563756
1577,0.0
3,6, 1, 6, 0,Sunday
7,-3.4229166666666675,-4.6, 7,60,-2.4,19,60
8,-4.572395833333333,-7.1, 1,15,-3.0,24,60
9,-3.8650041755420497,-4.887844760743663, 2,60,-2.6504321491632616,24,60
10,16.927083333333332,0.0, 1,15,89.0,12,30
11,4.8203125,0.0, 1,15,29.0,15,30
12,171.39382734271808,0.676999179191866, 1,45,340.21418969258576,24,60
13,-19.90459616452433,-60.14617945944964, 1,45,14.937429352245028,13,45
2844,33426095.362779394,0.0, 1,15,2612384.5446604164,22,45
2983,0.0,0.0, 1,15,0.0, 1,15
2,7, 1, 7, 0, 1, 0.00,60.00,Monday
16,5962509.71321102
1528,345626706.70527655
1577,0.0
2,7, 1, 7, 0, 2, 0.00,60.00,Monday
16,3307854.1251308587
1528,362788324.5436925
1577,0.0
2,7, 1, 7, 0, 3, 0.00,60.00,Monday
16,3307854.1251308587
1528,391924543.811976
1577,0.0
2,7, 1, 7, 0, 4, 0.00,60.00,Monday
16,3307854.1251308587
1528,422243202.7210821
1577,0.0
2,7, 1, 7, 0, 5, 0.00,60.00,Monday
16,5962156.075296879
1528,451721765.8139144
1577,0.0
2,7, 1, 7, 0, 6, 0.00,60.00,Monday
16,3307854.1251308587
1528,480801396.57056016
1577,0.0
2,7, 1, 7, 0, 7, 0.00,60.00,Monday
16,6210228.0346060125
1528,513878282.2790226
1577,0.0
2,7, 1, 7, 0, 8, 0.00,60.00,Monday
16,3307854.1251308587
1528,393563229.50339836
1577,0.0
2,7, 1, 7, 0, 9, 0.00,60.00,Monday
16,6376809.358729593
1528,375202523.2186961
1577,0.0
2,7, 1, 7, 0,10, 0.00,60.00,Monday
16,6376299.74905988
1528,355842174.7971828
1577,0.0
2,7, 1, 7, 0,11, 0.00,60.00,Monday
16,6037242.700521784
1528,336250531.85152215
1577,0.0
2,7, 1, 7, 0,12, 0.00,60.00,Monday
16,3307854.1251308587
1528,316585061.01278377
1577,0.0
2,7, 1, 7, 0,13, 0.00,60.00,Monday
16,6037777.939780908
1528,297008784.2961874
1577,0.0
2,7, 1, 7, 0,14, 0.00,60.00,Monday
16,3307854.1251308587
1528,286177216.97285694
1577,0.0
2,7, 1, 7, 0,15, 0.00,60.00,Monday
16,3307854.1251308587
1528,281870448.31242967
1577,0.0
2,7, 1, 7, 0,16, 0.00,60.00,Monday
16,6037640.820659707
1528,277229300.33887434
1577,0.0
2,7, 1, 7, 0,17, 0.00,60.00,Monday
16,3307854.1251308587
1528,273074845.5429968
1577,0.0
2,7, 1, 7, 0,18, 0.00,60.00,Monday
16,6241048.1883017775
1528,268222721.77027103
1577,0.0
2,7, 1, 7, 0,19, 0.00,60.00,Monday
16,6241495.218372277
1528,263794016.3642255
1577,0.0
2,7, 1, 7, 0,20, 0.00,60.00,Monday
16,6241404.403794225
1528,375496396.4412256
1577,0.0
2,7, 1, 7, 0,21, 0.00,60.00,Monday
16,3307854.1251308587
1528,368969738.21850765
1577,0.0
2,7, 1, 7, 0,22, 0.00,60.00,Monday
16,6210095.480880164
1528,362505152.8999898
1577,0.0
2,7, 1, 7, 0,23, 0.00,60.00,Monday
16,6210273.209255926
1528,355355213.5634935
1577,0.0
2,7, 1, 7, 0,24, 0.00,60.00,Monday
16,5762850.696560197
1528,349524227.35495627
1577,0.0
3,7, 1, 7, 0,Monday
7,-5.505729166666664,-11.1, 7,60,-2.3,24,60
8,-6.389583333333333,-12.1, 7,60,-2.9, 1,60
9,-5.813797856992925,-11.366139782034363, 7,60,-2.600129425188394, 1,60
10,18.200520833333332,0.0, 1,15,84.0,12,30
11,80.8359375,0.0, 1,15,390.0,13,30
12,171.29259514926343,0.4747425056558858, 1,45,340.0772010768144,24,60
13,-19.800915512093123,-60.02709001319141, 1,45,15.057526730624629,13,45
2844,35638086.45347849,0.0, 1,15,2688162.89500915, 9,15
2983,0.0,0.0, 1,15,0.0, 1,15
2,8, 1, 8, 0, 1, 0.00,60.00,Tuesday
16,3716173.1125022825
1528,344327384.3230056
1577,0.0
2,8, 1, 8, 0, 2, 0.00,60.00,Tuesday
16,3307854.1251308587
1528,342361591.7119426
1577,0.0
2,8, 1, 8, 0, 3, 0.00,60.00,Tuesday
16,3307854.1251308587
1528,341895874.9073211
1577,0.0
2,8, 1, 8, 0, 4, 0.00,60.00,Tuesday
16,5962553.52272214
1528,342712439.5505633
1577,0.0
2,8, 1, 8, 0, 5, 0.00,60.00,Tuesday
16,3307854.1251308587
1528,343059261.51135045
1577,0.0
2,8, 1, 8, 0, 6, 0.00,60.00,Tuesday
16,3307854.1251308587
1528,342689584.8903713
1577,0.0
2,8, 1, 8, 0, 7, 0.00,60.00,Tuesday
16,6209845.949184895
1528,343872660.6113469
1577,0.0
2,8, 1, 8, 0, 8, 0.00,60.00,Tuesday
16,6210533.501679599
1528,218691585.71663126
1577,0.0
2,8, 1, 8, 0, 9, 0.00,60.00,Tuesday
16,6194096.179103877
1528,208588754.11869287
1577,0.0
2,8, 1, 8, 0,10, 0.00,60.00,Tuesday
16,5473284.169295273
1528,196810147.91784847
1577,0.0
2,8, 1, 8, 0,11, 0.00,60.00,Tuesday
16,4271712.795227584
1528,186422749.00387487
1577,0.0
2,8, 1, 8, 0,12, 0.00,60.00,Tuesday
16,3307854.1251308587
1528,180893933.02418137
1577,0.0
2,8, 1, 8, 0,13, 0.00,60.00,Tuesday
16,6037402.724179201
1528,176227065.86382088
1577,0.0
2,8, 1, 8, 0,14, 0.00,60.00,Tuesday
16,3307854.1251308587
1528,173126763.76009732
1577,0.0
2,8, 1, 8, 0,15, 0.00,60.00,Tuesday
16,6037756.889733374
1528,165469294.8368389
1577,0.0
2,8, 1, 8, 0,16, 0.00,60.00,Tuesday
16,3307854.1251308587
1528,162506358.31792825
1577,0.0
2,8, 1, 8, 0,17, 0.00,60.00,Tuesday
16,5602242.55123922
1528,164463015.5023433
1577,0.0
2,8, 1, 8, 0,18, 0.00,60.00,Tuesday
16,3776152.257910093
1528,159332836.5530559
1577,0.0
2,8, 1, 8, 0,19, 0.00,60.00,Tuesday
16,6240762.275770168
1528,152322875.9177918
1577,0.0
2,8, 1, 8, 0,20, 0.00,60.00,Tuesday
16,6240856.603569812
1528,259242885.69608364
1577,0.0
2,8, 1, 8, 0,21, 0.00,60.00,Tuesday
16,6241301.842429442
1528,246233242.62560302
1577,0.0
2,8, 1, 8, 0,22, 0.00,60.00,Tuesday
16,3307854.1251308587
1528,231883175.46807647
1577,0.0
2,8, 1, 8, 0,23, 0.00,60.00,Tuesday
16,6210079.784076909
1528,224041617.24504054
1577,0.0
2,8, 1, 8, 0,24, 0.00,60.00,Tuesday
16,6210294.0267837485
1528,225137414.07629192
1577,0.0
3,8, 1, 8, 0,Tuesday
7,0.33385416666666695,-2.25, 1,15,4.0,23,60
8,-0.19583404686953979,-3.6, 7,60,4.0,23,60
9,0.1188314416176298,-2.7575005134912995, 7,60,4.0,23,60
10,6.432291666666667,0.0, 1,15,34.0,12,30
11,0.3151041666666667,0.0, 1,15,7.0,10,30
12,171.19300465716188,0.2770419467789127, 1,45,339.9474288361953,24,60
13,-19.69085628613162,-59.900432936670626, 1,45,15.184830734836614,13,45
2844,33938443.964982495,0.0, 1,30,2612411.4388938667, 8,60
2983,0.0,0.0, 1,15,0.0, 1,15
2,9, 1, 9, 0, 1, 0.00,60.00,Wednesday
16,3307854.1251308587
1528,228462145.67903072
1577,0.0
2,9, 1, 9, 0, 2, 0.00,60.00,Wednesday
16,3307854.1251308587
1528,238925817.54064918
1577,0.0
2,9, 1, 9, 0, 3, 0.00,60.00,Wednesday
16,5962306.772721122
1528,252548799.25369412
1577,0.0
2,9, 1, 9, 0, 4, 0.00,60.00,Wednesday
16,3307854.1251308587
1528,256051891.47225016
1577,0.0
2,9, 1, 9, 0, 5, 0.00,60.00,Wednesday
16,3307854.1251308587
1528,244440367.77684247
1577,0.0
2,9, 1, 9, 0, 6, 0.00,60.00,Wednesday
16,3307854.1251308587
1528,231943654.77922833
1577,0.0
2,9, 1, 9, 0, 7, 0.00,60.00,Wednesday
16,6210491.8225053465
1528,228040477.7951345
1577,0.0
2,9, 1, 9, 0, 8, 0.00,60.00,Wednesday
16,6209829.521552456
1528,120677911.9430805
1577,0.0
2,9, 1, 9, 0, 9, 0.00,60.00,Wednesday
16,6376809.758296495
1528,120004185.9237012
1577,0.0
2,9, 1, 9, 0,10, 0.00,60.00,Wednesday
16,6376299.886021733
1528,110962063.32645588
1577,0.0
2,9, 1, 9, 0,11, 0.00,60.00,Wednesday
16,3307854.1251308587
1528,101181480.27679358
1577,0.0
2,9, 1, 9, 0,12, 0.00,60.00,Wednesday
16,6037192.409034183
1528,90547077.05468751
1577,0.0
2,9, 1, 9, 0,13, 0.00,60.00,Wednesday
16,3307854.1251308587
1528,79904969.12269208
1577,0.0
2,9, 1, 9, 0,14, 0.00,60.00,Wednesday
16,3307854.1251308587
1528,78393864.40784901
1577,0.0
2,9, 1, 9, 0,15, 0.00,60.00,Wednesday
16,6037788.534190992
1528,81171271.10343467
1577,0.0
2,9, 1, 9, 0,16, 0.00,60.00,Wednesday
16,3307854.1251308587
1528,84327228.12144834
1577,0.0
2,9, 1, 9, 0,17, 0.00,60.00,Wednesday
16,6037714.892505588
1528,88087876.95959789
1577,0.0
2,9, 1, 9, 0,18, 0.00,60.00,Wednesday
16,5708872.751650225
1528,90698868.61565858
1577,0.0
2,9, 1, 9, 0,19, 0.00,60.00,Wednesday
16,3839963.160680266
1528,93812527.43589583
1577,0.0
2,9, 1, 9, 0,20, 0.00,60.00,Wednesday
16,6240618.743641998
1528,206845991.48303285
1577,0.0
2,9, 1, 9, 0,21, 0.00,60.00,Wednesday
16,6240880.899932238
1528,184003592.78133267
1577,0.0
2,9, 1, 9, 0,22, 0.00,60.00,Wednesday
16,6210485.263182251
1528,164778006.44995332
1577,0.0
2,9, 1, 9, 0,23, 0.00,60.00,Wednesday
16,3307854.1251308587
1528,156477177.26129532
1577,0.0
2,9, 1, 9, 0,24, 0.00,60.00,Wednesday
16,6209834.77978452
1528,153836083.83729446
1577,0.0
3,9, 1, 9, 0,Wednesday
7,4.736458333333332,2.1, 3,60,7.6,23,60
8,4.126040580561692,1.9, 1,60,5.999997196412721,13,60
9,4.590807866781274,2.0999984741210938, 3,60,6.748006875248453,23,60
10,18.317708333333332,0.0, 1,15,94.0,12,30
11,18.375,0.0, 1,15,158.0,13,30
12,171.0951546233548,0.08415330395139851, 1,45,339.824999142154,24,60
13,-19.574463356569648,-59.76628024130013, 1,45,15.319288581092687,13,45
2844,33650218.299480654,0.0, 1,15,2688588.551116526, 9,45
2983,0.0,0.0, 1,15,0.0, 1,15
2,10, 1,10, 0, 1, 0.00,60.00,Thursday
16,3307854.1251308587
1528,156788445.2281225
1577,0.0
2,10, 1,10, 0, 2, 0.00,60.00,Thursday
16,5962508.284545863
1528,163998702.66006067
1577,0.0
2,10, 1,10, 0, 3, 0.00,60.00,Thursday
16,3307854.1251308587
1528,186361608.65172154
1577,0.0
2,10, 1,10, 0, 4, 0.00,60.00,Thursday
16,3307854.1251308587
1528,197668950.9617281
1577,0.0
2,10, 1,10, 0, 5, 0.00,60.00,Thursday
16,3307854.1251308587
1528,198492214.2256925
1577,0.0
2,10, 1,10, 0, 6, 0.00,60.00,Thursday
16,5962176.632157316
1528,198876954.17486045
1577,0.0
2,10, 1,10, 0, 7, 0.00,60.00,Thursday
16,3535897.4240097264
1528,199481066.8491884
1577,0.0
2,10, 1,10, 0, 8, 0.00,60.00,Thursday
16,5981428.452296903
1528,92575290.2449212
1577,0.0
2,10, 1,10, 0, 9, 0.00,60.00,Thursday
16,6377035.903923514
1528,101798976.57684892
1577,0.0
2,10, 1,10, 0,10, 0.00,60.00,Thursday
16,6376889.205797102
1528,109984996.28124174
1577,0.0
2,10, 1,10, 0,11, 0.00,60.00,Thursday
16,4735478.977792878
1528,96334492.71901113
1577,0.0
2,10, 1,10, 0,12, 0.00,60.00,Thursday
16,4609527.81779608
1528,86668158.16824731
1577,0.0
2,10, 1,10, 0,13, 0.00,60.00,Thursday
16,3307854.1251308587
1528,89316843.90689509
1577,0.0
2,10, 1,10, 0,14, 0.00,60.00,Thursday
16,6037631.68312938
1528,89872444.55076972
1577,0.0
2,10, 1,10, 0,15, 0.00,60.00,Thursday
16,3307854.1251308587
1528,91769100.21056658
1577,0.0
2,10, 1,10, 0,16, 0.00,60.00,Thursday
16,6037736.669806412
1528,96791525.94298197
1577,0.0
2,10, 1,10, 0,17, 0.00,60.00,Thursday
16,3307854.1251308587
1528,102406569.95858179
1577,0.0
2,10, 1,10, 0,18, 0.00,60.00,Thursday
16,6240974.790041381
1528,117046357.37367879
1577,0.0
2,10, 1,10, 0,19, 0.00,60.00,Thursday
16,6241510.877234347
1528,122354530.74788582
1577,0.0
2,10, 1,10, 0,20, 0.00,60.00,Thursday
16,3307854.1251308587
1528,234893771.32903403
1577,0.0
2,10, 1,10, 0,21, 0.00,60.00,Thursday
16,6241420.078307867
1528,236231822.64434618
1577,0.0
2,10, 1,10, 0,22, 0.00,60.00,Thursday
16,6210002.944348064
1528,238655726.2060989
1577,0.0
2,10, 1,10, 0,23, 0.00,60.00,Thursday
16,6210414.968850722
1528,240384661.17705324
1577,0.0
2,10, 1,10, 0,24, 0.00,60.00,Thursday
16,3307854.1251308587
1528,230669974.08117747
1577,0.0
3,10, 1,10, 0,Thursday
7,4.616666666666666,2.7,23,60,7.5249999999999995, 1,15
8,2.0005208333333333,0.2, 7,60,5.3999999999999995, 1,15
9,3.6733112254525153,2.509699567522247,23,60,6.459245160919081, 1,15
10,18.4375,0.0, 1,15,91.0,13,30
11,35.565104166666664,0.0, 1,15,199.0,10,30
12,171.00130137365522,0.1036831833804491, 1,45,339.71002178991677,24,60
13,-19.451784315637955,-59.624707977317236, 1,45,15.460844461957508,13,45
2844,33428540.549767204,0.0, 1,15,2762263.60091339, 9,30
2983,0.0,0.0, 1,15,0.0, 1,15
2,11, 1,11, 0, 1, 0.00,60.00,Friday
16,5962505.491141645
1528,222717581.64324147
1577,0.0
2,11, 1,11, 0, 2, 0.00,60.00,Friday
16,3307854.1251308587
1528,225186403.28655386
1577,0.0
2,11, 1,11, 0, 3, 0.00,60.00,Friday
16,3307854.1251308587
1528,230623296.9919873
1577,0.0
2,11, 1,11, 0, 4, 0.00,60.00,Friday
16,3767314.117097333
1528,236133230.18395764
1577,0.0
2,11, 1,11, 0, 5, 0.00,60.00,Friday
16,5502759.742068051
1528,239382779.7724562
1577,0.0
2,11, 1,11, 0, 6, 0.00,60.00,Friday
16,3307854.1251308587
1528,237785706.38671574
1577,0.0
2,11, 1,11, 0, 7, 0.00,60.00,Friday
16,6210464.408211041
1528,236308682.34754997
1577,0.0
2,11, 1,11, 0, 8, 0.00,60.00,Friday
16,4481059.737136828
1528,123769884.58593373
1577,0.0
2,11, 1,11, 0, 9, 0.00,60.00,Friday
16,5472115.953201428
1528,131670344.86877638
1577,0.0
2,11, 1,11, 0,10, 0.00,60.00,Friday
16,6041489.881807164
1528,132593512.63678099
1577,0.0
2,11, 1,11, 0,11, 0.00,60.00,Friday
16,6037714.002223584
1528,114002045.85443993
1577,0.0
2,11, 1,11, 0,12, 0.00,60.00,Friday
16,3307854.1251308587
1528,113299887.08927974
1577,0.0
2,11, 1,11, 0,13, 0.00,60.00,Friday
16,6037161.173536834
1528,114595056.0714203
1577,0.0
2,11, 1,11, 0,14, 0.00,60.00,Friday
16,3307854.1251308587
1528,115693799.19086342
1577,0.0
2,11, 1,11, 0,15, 0.00,60.00,Friday
16,6037520.705893263
1528,109082351.24546573
1577,0.0
2,11, 1,11, 0,16, 0.00,60.00,Friday
16,3307854.1251308587
1528,121267298.00566033
1577,0.0
2,11, 1,11, 0,17, 0.00,60.00,Friday
16,3307854.1251308587
1528,135545655.52413338
1577,0.0
2,11, 1,11, 0,18, 0.00,60.00,Friday
16,6241458.8213958815