Program Version,EnergyPlus, Version 23.2.0-7636e6b3e9, YMD=2025.01.28 12:57
1,5,Environment Title[],Latitude[deg],Longitude[deg],Time Zone[],Elevation[m]
2,8,Day of Simulation[],Month[],Day of Month[],DST Indicator[1=yes 0=no],Hour[],StartMinute[],EndMinute[],DayType
3,5,Cumulative Day of Simulation[],Month[],Day of Month[],DST Indicator[1=yes 0=no],DayType  ! When Daily Report Variables Requested
4,2,Cumulative Days of Simulation[],Month[]  ! When Monthly Report Variables Requested
5,1,Cumulative Days of Simulation[] ! When Run Period Report Variables Requested
6,1,Calendar Year of Simulation[] ! When Annual Report Variables Requested
7,7,Environment,Site Outdoor Air Drybulb Temperature [C] !Daily [Value,Min,Hour,Minute,Max,Hour,Minute]
8,7,Environment,Site Outdoor Air Dewpoint Temperature [C] !Daily [Value,Min,Hour,Minute,Max,Hour,Minute]
9,7,Environment,Site Outdoor Air Wetbulb Temperature [C] !Daily [Value,Min,Hour,Minute,Max,Hour,Minute]
10,7,Environment,Site Diffuse Solar Radiation Rate per Area [W/m2] !Daily [Value,Min,Hour,Minute,Max,Hour,Minute]
11,7,Environment,Site Direct Solar Radiation Rate per Area [W/m2] !Daily [Value,Min,Hour,Minute,Max,Hour,Minute]
12,7,Environment,Site Solar Azimuth Angle [deg] !Daily [Value,Min,Hour,Minute,Max,Hour,Minute]
13,7,Environment,Site Solar Altitude Angle [deg] !Daily [Value,Min,Hour,Minute,Max,Hour,Minute]
2844,7,MYDHW_0_WATERHEATER,Water Heater Heating Energy [J] !Daily [Value,Min,Hour,Minute,Max,Hour,Minute]
2983,7,SCENARIO_3_WATERHEATER,Water Heater Heating Energy [J] !Daily [Value,Min,Hour,Minute,Max,Hour,Minute]
1528,1,Heating:EnergyTransfer [J] !Hourly
1577,1,Cooling:EnergyTransfer [J] !Hourly
16,1,Electricity:Facility [J] !Hourly
End of Data Dictionary
1,RUN PERIOD 1,  52.46,   5.52,   1.00,  -3.90
2,1, 1, 1, 0, 1, 0.00,60.00,Tuesday
16,3389746.018465958
1528,197236914.13738084
1577,0.0
2,1, 1, 1, 0, 2, 0.00,60.00,Tuesday
16,3389746.018465958
1528,189429501.53886795
1577,0.0
2,1, 1, 1, 0, 3, 0.00,60.00,Tuesday
16,3389746.018465958
1528,192422800.06736654
1577,0.0
2,1, 1, 1, 0, 4, 0.00,60.00,Tuesday
16,6044204.254528569
1528,194998093.89389366
1577,0.0
2,1, 1, 1, 0, 5, 0.00,60.00,Tuesday
16,3389746.018465958
1528,196911134.67067656
1577,0.0
2,1, 1, 1, 0, 6, 0.00,60.00,Tuesday
16,3389746.018465958
1528,199977459.67099077
1577,0.0
2,1, 1, 1, 0, 7, 0.00,60.00,Tuesday
16,6291766.950723962
1528,203523151.3959945
1577,0.0
2,1, 1, 1, 0, 8, 0.00,60.00,Tuesday
16,6292441.290797159
1528,118797540.12740864
1577,0.0
2,1, 1, 1, 0, 9, 0.00,60.00,Tuesday
16,6378233.856632531
1528,128449069.26092963
1577,0.0
2,1, 1, 1, 0,10, 0.00,60.00,Tuesday
16,5555316.42315717
1528,128421644.24595264
1577,0.0
2,1, 1, 1, 0,11, 0.00,60.00,Tuesday
16,4262716.773058952
1528,132216189.71733189
1577,0.0
2,1, 1, 1, 0,12, 0.00,60.00,Tuesday
16,3389746.018465958
1528,139783830.3773762
1577,0.0
2,1, 1, 1, 0,13, 0.00,60.00,Tuesday
16,6119245.608577262
1528,143587179.94362158
1577,0.0
2,1, 1, 1, 0,14, 0.00,60.00,Tuesday
16,3389746.018465958
1528,147061603.8380106
1577,0.0
2,1, 1, 1, 0,15, 0.00,60.00,Tuesday
16,6119654.222401483
1528,148799656.66891432
1577,0.0
2,1, 1, 1, 0,16, 0.00,60.00,Tuesday
16,3389746.018465958
1528,152603468.89740586
1577,0.0
2,1, 1, 1, 0,17, 0.00,60.00,Tuesday
16,5775052.940419532
1528,150479297.87900376
1577,0.0
2,1, 1, 1, 0,18, 0.00,60.00,Tuesday
16,3760281.096582477
1528,144583999.6955176
1577,0.0
2,1, 1, 1, 0,19, 0.00,60.00,Tuesday
16,6322667.833382674
1528,138196377.53437644
1577,0.0
2,1, 1, 1, 0,20, 0.00,60.00,Tuesday
16,6322716.042932196
1528,219265494.48899126
1577,0.0
2,1, 1, 1, 0,21, 0.00,60.00,Tuesday
16,6323114.9901811965
1528,207810225.3868828
1577,0.0
2,1, 1, 1, 0,22, 0.00,60.00,Tuesday
16,3389746.018465958
1528,202327186.6474867
1577,0.0
2,1, 1, 1, 0,23, 0.00,60.00,Tuesday
16,6292034.905756509
1528,207493486.85497126
1577,0.0
2,1, 1, 1, 0,24, 0.00,60.00,Tuesday
16,6292108.123899345
1528,213498792.57729244
1577,0.0
3,1, 1, 1, 0,Tuesday
7,2.891666666666666,1.4,16,60,4.2, 1,60
8,-0.03749999999999998,-2.5,10,60,2.1,24,60
9,1.854739388525906,0.4001495373206364,13,60,3.0998073170807516, 1,60
10,17.307291666666668,0.0, 1,15,86.0,12,30
11,26.854166666666668,0.0, 1,15,152.0,10,30
12,171.9210012821981,1.7466514206994332, 1,45,341.00180793165543,24,60
13,-20.325946072972584,-60.625898049216175, 1,45,14.446671545683287,13,45
2844,33574828.53243748,0.0, 1,15,2689639.0543499156, 9,60
2983,0.0,0.0, 1,15,0.0, 1,15
2,2, 1, 2, 0, 1, 0.00,60.00,Wednesday
16,3389746.018465958
1528,216486012.10953057
1577,0.0
2,2, 1, 2, 0, 2, 0.00,60.00,Wednesday
16,3389746.018465958
1528,211884402.82839134
1577,0.0
2,2, 1, 2, 0, 3, 0.00,60.00,Wednesday
16,6044023.5025782455
1528,210709735.966007
1577,0.0
2,2, 1, 2, 0, 4, 0.00,60.00,Wednesday
16,3389746.018465958
1528,215551417.0069203
1577,0.0
2,2, 1, 2, 0, 5, 0.00,60.00,Wednesday
16,3389746.018465958
1528,207299091.0476907
1577,0.0
2,2, 1, 2, 0, 6, 0.00,60.00,Wednesday
16,3389746.018465958
1528,201131758.44628066
1577,0.0
2,2, 1, 2, 0, 7, 0.00,60.00,Wednesday
16,6292395.523348669
1528,197483118.52260837
1577,0.0
2,2, 1, 2, 0, 8, 0.00,60.00,Wednesday
16,6291717.27776158
1528,99784201.26938683
1577,0.0
2,2, 1, 2, 0, 9, 0.00,60.00,Wednesday
16,6458767.5639911415
1528,97812831.7487351
1577,0.0
2,2, 1, 2, 0,10, 0.00,60.00,Wednesday
16,6458215.089173025
1528,99950768.01817402
1577,0.0
2,2, 1, 2, 0,11, 0.00,60.00,Wednesday
16,3389746.018465958
1528,102416666.20565167
1577,0.0
2,2, 1, 2, 0,12, 0.00,60.00,Wednesday
16,6119053.102259804
1528,112666181.67089432
1577,0.0
2,2, 1, 2, 0,13, 0.00,60.00,Wednesday
16,3389746.018465958
1528,116286823.65647034
1577,0.0
2,2, 1, 2, 0,14, 0.00,60.00,Wednesday
16,3410120.987421613
1528,117617534.81161916
1577,0.0
2,2, 1, 2, 0,15, 0.00,60.00,Wednesday
16,6099297.003277328
1528,105733905.04772462
1577,0.0
2,2, 1, 2, 0,16, 0.00,60.00,Wednesday
16,3389746.018465958
1528,101571133.66296497
1577,0.0
2,2, 1, 2, 0,17, 0.00,60.00,Wednesday
16,6119618.034496986
1528,106546234.39198717
1577,0.0
2,2, 1, 2, 0,18, 0.00,60.00,Wednesday
16,5888243.151777305
1528,112959806.12910071
1577,0.0
2,2, 1, 2, 0,19, 0.00,60.00,Wednesday
16,3824431.932888507
1528,128801862.79484048
1577,0.0
2,2, 1, 2, 0,20, 0.00,60.00,Wednesday
16,6322499.7175594075
1528,222269285.47106633
1577,0.0
2,2, 1, 2, 0,21, 0.00,60.00,Wednesday
16,6322736.5025653
1528,214456963.63136968
1577,0.0
2,2, 1, 2, 0,22, 0.00,60.00,Wednesday
16,6292388.977780674
1528,210485588.22170618
1577,0.0
2,2, 1, 2, 0,23, 0.00,60.00,Wednesday
16,3389746.018465958
1528,214058689.92205858
1577,0.0
2,2, 1, 2, 0,24, 0.00,60.00,Wednesday
16,6291718.69626264
1528,220151900.79961225
1577,0.0
3,2, 1, 2, 0,Wednesday
7,3.686458333333334,2.7,19,60,4.7,15,60
8,0.859375,-2.5,24,60,3.0, 8,60
9,2.7411140405471186,1.1746816380023941, 1,60,3.8128607493951674, 8,60
10,16.630208333333332,0.0, 1,15,76.0,12,30
11,62.854166666666664,0.0, 1,15,310.0,15,30
12,171.8131188905313,1.5259563868488346, 1,45,340.83120702053344,24,60
13,-20.25473323294449,-60.545572589949266, 1,45,14.530053212951353,13,45
2844,33650133.10753757,0.0, 1,15,2756890.581278466, 9,45
2983,0.0,0.0, 1,15,0.0, 1,15
2,3, 1, 3, 0, 1, 0.00,60.00,Thursday
16,3389746.018465958
1528,231219712.17146924
1577,0.0
2,3, 1, 3, 0, 2, 0.00,60.00,Thursday
16,6044411.17245415
1528,238096820.58752438
1577,0.0
2,3, 1, 3, 0, 3, 0.00,60.00,Thursday
16,3389746.018465958
1528,238778526.72014093
1577,0.0
2,3, 1, 3, 0, 4, 0.00,60.00,Thursday
16,3389746.018465958
1528,244728618.19431072
1577,0.0
2,3, 1, 3, 0, 5, 0.00,60.00,Thursday
16,3389746.018465958
1528,244763000.3840621
1577,0.0
2,3, 1, 3, 0, 6, 0.00,60.00,Thursday
16,6043936.27620825
1528,248637491.42697662
1577,0.0
2,3, 1, 3, 0, 7, 0.00,60.00,Thursday
16,3722888.6798977004
1528,255840244.35992098
1577,0.0
2,3, 1, 3, 0, 8, 0.00,60.00,Thursday
16,5958227.069115723
1528,166442200.12659213
1577,0.0
2,3, 1, 3, 0, 9, 0.00,60.00,Thursday
16,6458940.127061902
1528,172701838.6280057
1577,0.0
2,3, 1, 3, 0,10, 0.00,60.00,Thursday
16,6458793.449918096
1528,168457096.0673438
1577,0.0
2,3, 1, 3, 0,11, 0.00,60.00,Thursday
16,5005746.145500712
1528,152794121.83544782
1577,0.0
2,3, 1, 3, 0,12, 0.00,60.00,Thursday
16,4503057.403500501
1528,143702140.5550437
1577,0.0
2,3, 1, 3, 0,13, 0.00,60.00,Thursday
16,3389746.018465958
1528,141453646.71655908
1577,0.0
2,3, 1, 3, 0,14, 0.00,60.00,Thursday
16,6119386.813835572
1528,148136151.98673502
1577,0.0
2,3, 1, 3, 0,15, 0.00,60.00,Thursday
16,3389746.018465958
1528,150387845.02877855
1577,0.0
2,3, 1, 3, 0,16, 0.00,60.00,Thursday
16,6119639.838124521
1528,164926262.51335555
1577,0.0
2,3, 1, 3, 0,17, 0.00,60.00,Thursday
16,3389746.018465958
1528,181918421.17095724
1577,0.0
2,3, 1, 3, 0,18, 0.00,60.00,Thursday
16,6322817.930795464
1528,193740190.40326926
1577,0.0
2,3, 1, 3, 0,19, 0.00,60.00,Thursday
16,6323342.222897746
1528,205529487.8990319
1577,0.0
2,3, 1, 3, 0,20, 0.00,60.00,Thursday
16,3389746.018465958
1528,297882714.9806044
1577,0.0
2,3, 1, 3, 0,21, 0.00,60.00,Thursday
16,6323323.889074884
1528,286131944.547795
1577,0.0
2,3, 1, 3, 0,22, 0.00,60.00,Thursday
16,6291947.990820398
1528,276481063.2140505
1577,0.0
2,3, 1, 3, 0,23, 0.00,60.00,Thursday
16,6292219.543393621
1528,265467134.8265923
1577,0.0
2,3, 1, 3, 0,24, 0.00,60.00,Thursday
16,3389746.018465958
1528,255158133.26265538
1577,0.0
3,3, 1, 3, 0,Thursday
7,1.1666666666666665,-1.0,19,60,2.775, 1,15
8,-0.6007504992247794,-2.2,13,60,1.3,24,60
9,0.3890060654580482,-1.321738782587282,19,60,2.1129291271731074, 1,15
10,14.333333333333334,0.0, 1,15,65.0,13,30
11,122.921875,0.0, 1,15,558.0,13,30
12,171.70635220439564,1.3083254005832814, 1,45,340.6669445746221,24,60
13,-20.176959693862347,-60.45738645598138, 1,45,14.6208584194948,13,45
2844,33428239.448048875,0.0, 1,15,2762274.697736349, 9,30
2983,0.0,0.0, 1,15,0.0, 1,15
2,4, 1, 4, 0, 1, 0.00,60.00,Friday
16,6044408.41948893
1528,291049926.3383482
1577,0.0
2,4, 1, 4, 0, 2, 0.00,60.00,Friday
16,3389746.018465958
1528,317509790.81871927
1577,0.0
2,4, 1, 4, 0, 3, 0.00,60.00,Friday
16,3389746.018465958
1528,321248193.5700065
1577,0.0
2,4, 1, 4, 0, 4, 0.00,60.00,Friday
16,4153451.7656909386
1528,326254227.2579848
1577,0.0
2,4, 1, 4, 0, 5, 0.00,60.00,Friday
16,5280258.044524341
1528,330816431.1616596
1577,0.0
2,4, 1, 4, 0, 6, 0.00,60.00,Friday
16,3389746.018465958
1528,334659654.5163163
1577,0.0
2,4, 1, 4, 0, 7, 0.00,60.00,Friday
16,6292368.160330949
1528,340043550.1250726
1577,0.0
2,4, 1, 4, 0, 8, 0.00,60.00,Friday
16,4668001.4997044075
1528,241773254.296693
1577,0.0
2,4, 1, 4, 0, 9, 0.00,60.00,Friday
16,5554021.776015053
1528,235261603.41269705
1577,0.0
2,4, 1, 4, 0,10, 0.00,60.00,Friday
16,6012208.562741463
1528,228056294.6688719
1577,0.0
2,4, 1, 4, 0,11, 0.00,60.00,Friday
16,6119622.41471173
1528,220594514.21545357
1577,0.0
2,4, 1, 4, 0,12, 0.00,60.00,Friday
16,3389746.018465958
1528,213086517.18981975
1577,0.0
2,4, 1, 4, 0,13, 0.00,60.00,Friday
16,6119106.547793383
1528,205603796.40851837
1577,0.0
2,4, 1, 4, 0,14, 0.00,60.00,Friday
16,3389746.018465958
1528,206580694.61893407
1577,0.0
2,4, 1, 4, 0,15, 0.00,60.00,Friday
16,6119246.927083987
1528,212706857.72882915
1577,0.0
2,4, 1, 4, 0,16, 0.00,60.00,Friday
16,3389746.018465958
1528,219057538.63495997
1577,0.0
2,4, 1, 4, 0,17, 0.00,60.00,Friday
16,3389746.018465958
1528,226633570.21299234
1577,0.0
2,4, 1, 4, 0,18, 0.00,60.00,Friday
16,6323368.136707977
1528,233486182.36102018
1577,0.0
2,4, 1, 4, 0,19, 0.00,60.00,Friday
16,6323277.358533271
1528,239538080.93143427
1577,0.0
2,4, 1, 4, 0,20, 0.00,60.00,Friday
16,6322884.360182855
1528,347598040.5978565
1577,0.0
2,4, 1, 4, 0,21, 0.00,60.00,Friday
16,5067256.226886215
1528,355513948.5049318
1577,0.0
2,4, 1, 4, 0,22, 0.00,60.00,Friday
16,4631715.090142997
1528,358732710.11758924
1577,0.0
2,4, 1, 4, 0,23, 0.00,60.00,Friday
16,6292411.290702892
1528,371854007.74975604
1577,0.0
2,4, 1, 4, 0,24, 0.00,60.00,Friday
16,6291722.623014114
1528,379738860.68074304
1577,0.0
3,4, 1, 4, 0,Friday
7,-2.370833333333333,-5.0,23,60,0.5999999999999999, 1,15
8,-3.617708333333334,-7.7,24,60,0.3750000000000001, 1,15
9,-2.8442852708335775,-5.828734757976214,24,60,0.4861570244684519, 1,15
10,14.375,0.0, 1,15,66.0,13,30
11,129.13541666666666,0.0, 1,15,576.0,13,30
12,171.60081020210077,1.0940828941618326, 1,45,340.50922888156305,24,60
13,-20.09265613455602,-60.36138875158809, 1,45,14.71905019080346,13,45
2844,35990682.20130079,0.0, 1,15,2640259.9064178173,18,15
2983,0.0,0.0, 1,15,0.0, 1,15
2,5, 1, 5, 0, 1, 0.00,60.00,Saturday
16,3389746.018465958
1528,377912556.11433685
1577,0.0
2,5, 1, 5, 0, 2, 0.00,60.00,Saturday
16,3389746.018465958
1528,377941140.94973826
1577,0.0
2,5, 1, 5, 0, 3, 0.00,60.00,Saturday
16,3850125.349623222
1528,379647674.48298204
1577,0.0
2,5, 1, 5, 0, 4, 0.00,60.00,Saturday
16,5583731.760249648
1528,381387493.34570795
1577,0.0
2,5, 1, 5, 0, 5, 0.00,60.00,Saturday
16,3389746.018465958
1528,383153237.667989
1577,0.0
2,5, 1, 5, 0, 6, 0.00,60.00,Saturday
16,3389746.018465958
1528,384942121.1161912
1577,0.0
2,5, 1, 5, 0, 7, 0.00,60.00,Saturday
16,6291954.314671046
1528,388486747.6379336
1577,0.0
2,5, 1, 5, 0, 8, 0.00,60.00,Saturday
16,6292210.016856996
1528,288799481.5423247
1577,0.0
2,5, 1, 5, 0, 9, 0.00,60.00,Saturday
16,6458287.770481361
1528,280877189.9439062
1577,0.0
2,5, 1, 5, 0,10, 0.00,60.00,Saturday
16,6458950.027455162
1528,272652587.72248274
1577,0.0
2,5, 1, 5, 0,11, 0.00,60.00,Saturday
16,3389746.018465958
1528,263689933.0240528
1577,0.0
2,5, 1, 5, 0,12, 0.00,60.00,Saturday
16,3541146.3359961174
1528,253969578.06744438
1577,0.0
2,5, 1, 5, 0,13, 0.00,60.00,Saturday
16,5968159.246626609
1528,245525865.1541049
1577,0.0
2,5, 1, 5, 0,14, 0.00,60.00,Saturday
16,3389746.018465958
1528,243912943.48905483
1577,0.0
2,5, 1, 5, 0,15, 0.00,60.00,Saturday
16,6119625.875099193
1528,247242365.7230726
1577,0.0
2,5, 1, 5, 0,16, 0.00,60.00,Saturday
16,3389746.018465958
1528,250272930.875264
1577,0.0
2,5, 1, 5, 0,17, 0.00,60.00,Saturday
16,6119123.966220471
1528,252535493.6913758
1577,0.0
2,5, 1, 5, 0,18, 0.00,60.00,Saturday
16,3389746.018465958
1528,255781186.96356025
1577,0.0
2,5, 1, 5, 0,19, 0.00,60.00,Saturday
16,6323374.2998285275
1528,258458100.79585034
1577,0.0
2,5, 1, 5, 0,20, 0.00,60.00,Saturday
16,6323283.477151965
1528,352976971.0075792
1577,0.0
2,5, 1, 5, 0,21, 0.00,60.00,Saturday
16,6322912.9028868815
1528,351530140.4064097
1577,0.0
2,5, 1, 5, 0,22, 0.00,60.00,Saturday
16,3996718.0829689163
1528,350444355.17266905
1577,0.0
2,5, 1, 5, 0,23, 0.00,60.00,Saturday
16,5685016.210087872
1528,348076506.79902166
1577,0.0
2,5, 1, 5, 0,24, 0.00,60.00,Saturday
16,6292164.218928868
1528,347415767.644192
1577,0.0
3,5, 1, 5, 0,Saturday
7,-4.088541666666665,-5.5, 7,60,-2.8,13,60
8,-7.080208333333332,-7.45, 1,15,-6.7, 1,60
9,-5.141229228510597,-6.135298049949361, 7,60,-4.298956651781032,13,60
10,14.5703125,0.0, 1,15,65.0,13,30
11,132.4921875,0.0, 1,15,603.0,13,30
12,171.49660012976298,0.8835410953785034, 1,45,340.35825202416595,24,60
13,-20.001856138640335,-60.257633494339274, 1,45,14.82458830946985,13,45
2844,33651762.803709775,0.0, 1,15,2753559.1350531993,10,60
2983,0.0,0.0, 1,15,0.0, 1,15
2,6, 1, 6, 0, 1, 0.00,60.00,Sunday
16,3389746.018465958
1528,346844972.4515585
1577,0.0
2,6, 1, 6, 0, 2, 0.00,60.00,Sunday
16,3389746.018465958
1528,348893411.03353524
1577,0.0
2,6, 1, 6, 0, 3, 0.00,60.00,Sunday
16,6044406.1861012615
1528,351295887.71778727
1577,0.0
2,6, 1, 6, 0, 4, 0.00,60.00,Sunday
16,3389746.018465958
1528,354219250.95567584
1577,0.0
2,6, 1, 6, 0, 5, 0.00,60.00,Sunday
16,3389746.018465958
1528,357905813.61494666
1577,0.0
2,6, 1, 6, 0, 6, 0.00,60.00,Sunday
16,6043988.862494823
1528,360383695.3925691
1577,0.0
2,6, 1, 6, 0, 7, 0.00,60.00,Sunday
16,3389746.018465958
1528,365006617.83154666
1577,0.0
2,6, 1, 6, 0, 8, 0.00,60.00,Sunday
16,6291604.68742564
1528,270074388.91056895
1577,0.0
2,6, 1, 6, 0, 9, 0.00,60.00,Sunday
16,6458158.078910748
1528,267809494.85766184
1577,0.0
2,6, 1, 6, 0,10, 0.00,60.00,Sunday
16,6458236.50480045
1528,266059777.2166034
1577,0.0
2,6, 1, 6, 0,11, 0.00,60.00,Sunday
16,3389746.018465958
1528,263547935.5283522
1577,0.0
2,6, 1, 6, 0,12, 0.00,60.00,Sunday
16,6119320.848559652
1528,260151155.17364356
1577,0.0
2,6, 1, 6, 0,13, 0.00,60.00,Sunday
16,3389746.018465958
1528,256710232.55041876
1577,0.0
2,6, 1, 6, 0,14, 0.00,60.00,Sunday
16,6119646.090866958
1528,253277912.62818396
1577,0.0
2,6, 1, 6, 0,15, 0.00,60.00,Sunday
16,3389746.018465958
1528,249807278.12271208
1577,0.0
2,6, 1, 6, 0,16, 0.00,60.00,Sunday
16,5639138.63011919
1528,247558454.01139304
1577,0.0
2,6, 1, 6, 0,17, 0.00,60.00,Sunday
16,3869876.1474869857
1528,244809529.29641327
1577,0.0
2,6, 1, 6, 0,18, 0.00,60.00,Sunday
16,6322804.628382549
1528,241277254.5785141
1577,0.0
2,6, 1, 6, 0,19, 0.00,60.00,Sunday
16,4907555.597922288
1528,237717382.1564455
1577,0.0
2,6, 1, 6, 0,20, 0.00,60.00,Sunday
16,4804631.252582013
1528,330066437.89433694
1577,0.0
2,6, 1, 6, 0,21, 0.00,60.00,Sunday
16,6322834.801614093
1528,329103106.1102673
1577,0.0
2,6, 1, 6, 0,22, 0.00,60.00,Sunday
16,6292395.51188809
1528,328428588.1444398
1577,0.0
2,6, 1, 6, 0,23, 0.00,60.00,Sunday
16,4910783.199080725
1528,326570051.90583664
1577,0.0
2,6, 1, 6, 0,24, 0.00,60.00,Sunday
16,4770680.099908227
1528,326319657.2499325
1577,0.0
3,6, 1, 6, 0,Sunday
7,-3.4229166666666675,-4.6, 7,60,-2.4,19,60
8,-4.572395833333333,-7.1, 1,15,-3.0,24,60
9,-3.8650041755420497,-4.887844760743663, 2,60,-2.6504321491632616,24,60
10,16.927083333333332,0.0, 1,15,89.0,12,30
11,4.8203125,0.0, 1,15,29.0,15,30
12,171.39382734271808,0.676999179191866, 1,45,340.21418969258576,24,60
13,-19.90459616452433,-60.14617945944964, 1,45,14.937429352245028,13,45
2844,33426112.34941953,0.0, 1,15,2612384.544079918,22,45
2983,0.0,0.0, 1,15,0.0, 1,15
2,7, 1, 7, 0, 1, 0.00,60.00,Monday
16,6044401.606309101
1528,326164271.4165457
1577,0.0
2,7, 1, 7, 0, 2, 0.00,60.00,Monday
16,3389746.018465958
1528,343338664.6008532
1577,0.0
2,7, 1, 7, 0, 3, 0.00,60.00,Monday
16,3389746.018465958
1528,372432394.7223255
1577,0.0
2,7, 1, 7, 0, 4, 0.00,60.00,Monday
16,3389746.018465958
1528,402694074.4846295
1577,0.0
2,7, 1, 7, 0, 5, 0.00,60.00,Monday
16,6044047.971959069
1528,432110495.69192386
1577,0.0
2,7, 1, 7, 0, 6, 0.00,60.00,Monday
16,3389746.018465958
1528,461123460.4367864
1577,0.0
2,7, 1, 7, 0, 7, 0.00,60.00,Monday
16,6292119.929559782
1528,494039200.8813458
1577,0.0
2,7, 1, 7, 0, 8, 0.00,60.00,Monday
16,3389746.018465958
1528,396158930.68109107
1577,0.0
2,7, 1, 7, 0, 9, 0.00,60.00,Monday
16,6458701.254300905
1528,377062457.78085285
1577,0.0
2,7, 1, 7, 0,10, 0.00,60.00,Monday
16,6458191.643144752
1528,357435067.71259415
1577,0.0
2,7, 1, 7, 0,11, 0.00,60.00,Monday
16,6119134.591613916
1528,337670578.48221457
1577,0.0
2,7, 1, 7, 0,12, 0.00,60.00,Monday
16,3389746.018465958
1528,317879950.8207046
1577,0.0
2,7, 1, 7, 0,13, 0.00,60.00,Monday
16,6119669.833509268
1528,298205356.205992
1577,0.0
2,7, 1, 7, 0,14, 0.00,60.00,Monday
16,3389746.018465958
1528,287293924.0359459
1577,0.0
2,7, 1, 7, 0,15, 0.00,60.00,Monday
16,3389746.018465958
1528,282918285.46123713
1577,0.0
2,7, 1, 7, 0,16, 0.00,60.00,Monday
16,6119532.7192078885
1528,278210891.6691626
1577,0.0
2,7, 1, 7, 0,17, 0.00,60.00,Monday
16,3389746.018465958
1528,273996023.86987513
1577,0.0
2,7, 1, 7, 0,18, 0.00,60.00,Monday
16,6322940.079551835
1528,269096664.8282455
1577,0.0
2,7, 1, 7, 0,19, 0.00,60.00,Monday
16,6323387.112122763
1528,264628442.36129192
1577,0.0
2,7, 1, 7, 0,20, 0.00,60.00,Monday
16,6323296.298317136
1528,354411047.3481236
1577,0.0
2,7, 1, 7, 0,21, 0.00,60.00,Monday
16,3389746.018465958
1528,348487442.6223495
1577,0.0
2,7, 1, 7, 0,22, 0.00,60.00,Monday
16,6291987.380318728
1528,342331237.12230605
1577,0.0
2,7, 1, 7, 0,23, 0.00,60.00,Monday
16,6292165.094706241
1528,335471418.18961734
1577,0.0
2,7, 1, 7, 0,24, 0.00,60.00,Monday
16,5844753.037480485
1528,329798984.53312147
1577,0.0
3,7, 1, 7, 0,Monday
7,-5.505729166666664,-11.1, 7,60,-2.3,24,60
8,-6.389583333333333,-12.1, 7,60,-2.9, 1,60
9,-5.813797856992925,-11.366139782034363, 7,60,-2.600129425188394, 1,60
10,18.200520833333332,0.0, 1,15,84.0,12,30
11,80.8359375,0.0, 1,15,390.0,13,30
12,171.29259514926343,0.4747425056558858, 1,45,340.0772010768144,24,60
13,-19.800915512093123,-60.02709001319141, 1,45,15.057526730624629,13,45
2844,35638095.86422061,0.0, 1,15,2688165.277659192, 9,15
2983,0.0,0.0, 1,15,0.0, 1,15
2,8, 1, 8, 0, 1, 0.00,60.00,Tuesday
16,3798055.4701172435
1528,324728738.9274467
1577,0.0
2,8, 1, 8, 0, 2, 0.00,60.00,Tuesday
16,3389746.018465958
1528,322857712.00061
1577,0.0
2,8, 1, 8, 0, 3, 0.00,60.00,Tuesday
16,3389746.018465958
1528,322471014.3350392
1577,0.0
2,8, 1, 8, 0, 4, 0.00,60.00,Tuesday
16,6044445.416402847
1528,323351769.6085549
1577,0.0
2,8, 1, 8, 0, 5, 0.00,60.00,Tuesday
16,3389746.018465958
1528,323756538.2605411
1577,0.0
2,8, 1, 8, 0, 6, 0.00,60.00,Tuesday
16,3389746.018465958
1528,323441573.6404296
1577,0.0
2,8, 1, 8, 0, 7, 0.00,60.00,Tuesday
16,6291737.843052169
1528,324593085.524565
1577,0.0
2,8, 1, 8, 0, 8, 0.00,60.00,Tuesday
16,6292425.396169515
1528,221299171.15472698
1577,0.0
2,8, 1, 8, 0, 9, 0.00,60.00,Tuesday
16,6275995.499450423
1528,210458780.34158766
1577,0.0
2,8, 1, 8, 0,10, 0.00,60.00,Tuesday
16,5555176.072538707
1528,198404472.84265685
1577,0.0
2,8, 1, 8, 0,11, 0.00,60.00,Tuesday
16,4353598.085787966
1528,187838035.81308606
1577,0.0
2,8, 1, 8, 0,12, 0.00,60.00,Tuesday
16,3389746.018465958
1528,182178428.64191133
1577,0.0
2,8, 1, 8, 0,13, 0.00,60.00,Tuesday
16,6119294.613760146
1528,177410456.69828355
1577,0.0
2,8, 1, 8, 0,14, 0.00,60.00,Tuesday
16,3389746.018465958
1528,174227803.44189072
1577,0.0
2,8, 1, 8, 0,15, 0.00,60.00,Tuesday
16,6119648.783463688
1528,166502975.03830782
1577,0.0
2,8, 1, 8, 0,16, 0.00,60.00,Tuesday
16,3389746.018465958
1528,163483740.29199108
1577,0.0
2,8, 1, 8, 0,17, 0.00,60.00,Tuesday
16,5684141.049479039
1528,165391150.33778343
1577,0.0
2,8, 1, 8, 0,18, 0.00,60.00,Tuesday
16,3858037.0493013174
1528,160217804.26129353
1577,0.0
2,8, 1, 8, 0,19, 0.00,60.00,Tuesday
16,6322654.173101965
1528,153169413.18993896
1577,0.0
2,8, 1, 8, 0,20, 0.00,60.00,Tuesday
16,6322748.492407484
1528,238763148.55167463
1577,0.0
2,8, 1, 8, 0,21, 0.00,60.00,Tuesday
16,6323193.72539977
1528,226369717.16199437
1577,0.0
2,8, 1, 8, 0,22, 0.00,60.00,Tuesday
16,3389746.018465958
1528,212349288.5210986
1577,0.0
2,8, 1, 8, 0,23, 0.00,60.00,Tuesday
16,6291971.684980234
1528,204793181.70498952
1577,0.0
2,8, 1, 8, 0,24, 0.00,60.00,Tuesday
16,6292185.909813691
1528,206018999.23487532
1577,0.0
3,8, 1, 8, 0,Tuesday
7,0.33385416666666695,-2.25, 1,15,4.0,23,60
8,-0.19583404686953979,-3.6, 7,60,4.0,23,60
9,0.1188314416176298,-2.7575005134912995, 7,60,4.0,23,60
10,6.432291666666667,0.0, 1,15,34.0,12,30
11,0.3151041666666667,0.0, 1,15,7.0,10,30
12,171.19300465716188,0.2770419467789127, 1,45,339.9474288361953,24,60
13,-19.69085628613162,-59.900432936670626, 1,45,15.184830734836614,13,45
2844,33938435.67279379,0.0, 1,30,2612411.4399332018, 8,60
2983,0.0,0.0, 1,15,0.0, 1,15
2,9, 1, 9, 0, 1, 0.00,60.00,Wednesday
16,3389746.018465958
1528,209435883.79267767
1577,0.0
2,9, 1, 9, 0, 2, 0.00,60.00,Wednesday
16,3389746.018465958
1528,219949173.29038945
1577,0.0
2,9, 1, 9, 0, 3, 0.00,60.00,Wednesday
16,6044198.640051795
1528,233596697.63354748
1577,0.0
2,9, 1, 9, 0, 4, 0.00,60.00,Wednesday
16,3389746.018465958
1528,237148313.53275242
1577,0.0
2,9, 1, 9, 0, 5, 0.00,60.00,Wednesday
16,3389746.018465958
1528,225627647.5258845
1577,0.0
2,9, 1, 9, 0, 6, 0.00,60.00,Wednesday
16,3389746.018465958
1528,213218851.21410632
1577,0.0
2,9, 1, 9, 0, 7, 0.00,60.00,Wednesday
16,6292383.717336756
1528,209294546.64904538
1577,0.0
2,9, 1, 9, 0, 8, 0.00,60.00,Wednesday
16,6291721.413615843
1528,123120614.2954452
1577,0.0
2,9, 1, 9, 0, 9, 0.00,60.00,Wednesday
16,6458701.662345302
1528,121894396.40021613
1577,0.0
2,9, 1, 9, 0,10, 0.00,60.00,Wednesday
16,6458191.780006987
1528,112581022.6221749
1577,0.0
2,9, 1, 9, 0,11, 0.00,60.00,Wednesday
16,3389746.018465958
1528,102622806.05068558
1577,0.0
2,9, 1, 9, 0,12, 0.00,60.00,Wednesday
16,6119084.2952484675
1528,91860767.9931228
1577,0.0
2,9, 1, 9, 0,13, 0.00,60.00,Wednesday
16,3389746.018465958
1528,81118712.55817278
1577,0.0
2,9, 1, 9, 0,14, 0.00,60.00,Wednesday
16,3389746.018465958
1528,79524520.81163651
1577,0.0
2,9, 1, 9, 0,15, 0.00,60.00,Wednesday
16,6119680.429404646
1528,82230412.36018397
1577,0.0
2,9, 1, 9, 0,16, 0.00,60.00,Wednesday
16,3389746.018465958
1528,85326055.23292543
1577,0.0
2,9, 1, 9, 0,17, 0.00,60.00,Wednesday
16,6119606.787720227
1528,89036821.15562214
1577,0.0
2,9, 1, 9, 0,18, 0.00,60.00,Wednesday
16,5790780.930513878
1528,91603569.23353076
1577,0.0
2,9, 1, 9, 0,19, 0.00,60.00,Wednesday
16,3921838.7772397436
1528,94675959.10424876
1577,0.0
2,9, 1, 9, 0,20, 0.00,60.00,Wednesday
16,6322520.172194706
1528,186753328.1528405
1577,0.0
2,9, 1, 9, 0,21, 0.00,60.00,Wednesday
16,6322772.789454486
1528,164545662.63473192
1577,0.0
2,9, 1, 9, 0,22, 0.00,60.00,Wednesday
16,6292377.157664013
1528,145671712.59835646
1577,0.0
2,9, 1, 9, 0,23, 0.00,60.00,Wednesday
16,3389746.018465958
1528,137663052.18921345
1577,0.0
2,9, 1, 9, 0,24, 0.00,60.00,Wednesday
16,6291726.672008114
1528,135169835.1684959
1577,0.0
3,9, 1, 9, 0,Wednesday
7,4.736458333333332,2.1, 3,60,7.6,23,60
8,4.126040580561692,1.9, 1,60,5.999997196412721,13,60
9,4.590807866781274,2.0999984741210938, 3,60,6.748006875248453,23,60
10,18.317708333333332,0.0, 1,15,94.0,12,30
11,18.375,0.0, 1,15,158.0,13,30
12,171.0951546233548,0.08415330395139851, 1,45,339.824999142154,24,60
13,-19.574463356569648,-59.76628024130013, 1,45,15.319288581092687,13,45
2844,33650226.8696534,0.0, 1,15,2688599.962313729, 9,45
2983,0.0,0.0, 1,15,0.0, 1,15
2,10, 1,10, 0, 1, 0.00,60.00,Thursday
16,3389746.018465958
1528,138214423.80274454
1577,0.0
2,10, 1,10, 0, 2, 0.00,60.00,Thursday
16,6044400.178947435
1528,145496969.45562568
1577,0.0
2,10, 1,10, 0, 3, 0.00,60.00,Thursday
16,3389746.018465958
1528,167861299.4536576
1577,0.0
2,10, 1,10, 0, 4, 0.00,60.00,Thursday
16,3389746.018465958
1528,179196752.1416857
1577,0.0
2,10, 1,10, 0, 5, 0.00,60.00,Thursday
16,3389746.018465958
1528,180075583.24451724
1577,0.0
2,10, 1,10, 0, 6, 0.00,60.00,Thursday
16,6044068.5097714625
1528,180511496.20957968
1577,0.0
2,10, 1,10, 0, 7, 0.00,60.00,Thursday
16,3617799.5106907813
1528,181086473.2540267
1577,0.0
2,10, 1,10, 0, 8, 0.00,60.00,Thursday
16,6063318.884963261
1528,94933707.92473543
1577,0.0
2,10, 1,10, 0, 9, 0.00,60.00,Thursday
16,6458927.797889736
1528,103700404.89871413
1577,0.0
2,10, 1,10, 0,10, 0.00,60.00,Thursday
16,6458781.099764391
1528,111617832.1382961
1577,0.0
2,10, 1,10, 0,11, 0.00,60.00,Thursday
16,4817380.511906012
1528,97790134.83238107
1577,0.0
2,10, 1,10, 0,12, 0.00,60.00,Thursday
16,4691410.07043153
1528,87992945.26954423
1577,0.0
2,10, 1,10, 0,13, 0.00,60.00,Thursday
16,3389746.018465958
1528,90539759.06360373
1577,0.0
2,10, 1,10, 0,14, 0.00,60.00,Thursday
16,6119523.568877768
1528,91013076.97717087
1577,0.0
2,10, 1,10, 0,15, 0.00,60.00,Thursday
16,3389746.018465958
1528,92838470.35398293
1577,0.0
2,10, 1,10, 0,16, 0.00,60.00,Thursday
16,6119628.563718671
1528,97799516.72322065
1577,0.0
2,10, 1,10, 0,17, 0.00,60.00,Thursday
16,3389746.018465958
1528,103362031.45320246
1577,0.0
2,10, 1,10, 0,18, 0.00,60.00,Thursday
16,6322866.68072666
1528,117958131.76415014
1577,0.0
2,10, 1,10, 0,19, 0.00,60.00,Thursday
16,6323402.7712404225
1528,123226814.24642386
1577,0.0
2,10, 1,10, 0,20, 0.00,60.00,Thursday
16,3389746.018465958
1528,214804348.42512792
1577,0.0
2,10, 1,10, 0,21, 0.00,60.00,Thursday
16,6323311.973181563
1528,216742248.3039624
1577,0.0
2,10, 1,10, 0,22, 0.00,60.00,Thursday
16,6291894.84409645
1528,219453514.2743487
1577,0.0
2,10, 1,10, 0,23, 0.00,60.00,Thursday
16,6292306.850462245
1528,221448458.31800336
1577,0.0
2,10, 1,10, 0,24, 0.00,60.00,Thursday
16,3389746.018465958
1528,211913683.44432855
1577,0.0
3,10, 1,10, 0,Thursday
7,4.616666666666666,2.7,23,60,7.5249999999999995, 1,15
8,2.0005208333333333,0.2, 7,60,5.3999999999999995, 1,15
9,3.6733112254525153,2.509699567522247,23,60,6.459245160919081, 1,15
10,18.4375,0.0, 1,15,91.0,13,30
11,35.565104166666664,0.0, 1,15,199.0,10,30
12,171.00130137365522,0.1036831833804491, 1,45,339.71002178991677,24,60
13,-19.451784315637955,-59.624707977317236, 1,45,15.460844461957508,13,45
2844,33428548.385711107,0.0, 1,15,2762263.6014813995, 9,30
2983,0.0,0.0, 1,15,0.0, 1,15
2,11, 1,11, 0, 1, 0.00,60.00,Friday
16,6044397.385901378
1528,204106679.13599578
1577,0.0
2,11, 1,11, 0, 2, 0.00,60.00,Friday
16,3389746.018465958
1528,206644719.5147476
1577,0.0
2,11, 1,11, 0, 3, 0.00,60.00,Friday
16,3389746.018465958
1528,212117594.4124674
1577,0.0
2,11, 1,11, 0, 4, 0.00,60.00,Friday
16,3849245.2788173323
1528,217653125.34184378
1577,0.0
2,11, 1,11, 0, 5, 0.00,60.00,Friday
16,5584612.34410854
1528,220927969.11491853
1577,0.0
2,11, 1,11, 0, 6, 0.00,60.00,Friday
16,3389746.018465958
1528,219366568.17805037
1577,0.0
2,11, 1,11, 0, 7, 0.00,60.00,Friday
16,6292356.303076905
1528,217846008.3529361
1577,0.0
2,11, 1,11, 0, 8, 0.00,60.00,Friday
16,4562969.498179311
1528,126216558.82737803
1577,0.0
2,11, 1,11, 0, 9, 0.00,60.00,Friday
16,5554007.848106309
1528,133568879.64391072
1577,0.0
2,11, 1,11, 0,10, 0.00,60.00,Friday
16,6123362.866383111
1528,134224694.821209
1577,0.0
2,11, 1,11, 0,11, 0.00,60.00,Friday
16,6119605.898368723
1528,115458594.51959886
1577,0.0
2,11, 1,11, 0,12, 0.00,60.00,Friday
16,3389746.018465958
1528,114627986.62171976
1577,0.0
2,11, 1,11, 0,13, 0.00,60.00,Friday
16,6119053.071799225
1528,115822515.3905402
1577,0.0
2,11, 1,11, 0,14, 0.00,60.00,Friday
16,3389746.018465958
1528,116838981.71949518
1577,0.0
2,11, 1,11, 0,15, 0.00,60.00,Friday
16,6119412.566869058
1528,110157288.78496268
1577,0.0
2,11, 1,11, 0,16, 0.00,60.00,Friday
16,3389746.018465958
1528,122277787.35523902
1577,0.0
2,11, 1,11, 0,17, 0.00,60.00,Friday
16,3389746.018465958
1528,136498647.53637892
1577,0.0
2,11, 1,11, 0,18, 0.00,60.00,Friday
16,6323350.717694482
1528,134265317.11975804
1577,0.0
2,11, 1,11, 0,19, 0.00,60.00,Friday
16,6323259.926088355