Program Version,EnergyPlus, Version 23.2.0-7636e6b3e9, YMD=2025.02.02 01:33
1,5,Environment Title[],Latitude[deg],Longitude[deg],Time Zone[],Elevation[m]
2,8,Day of Simulation[],Month[],Day of Month[],DST Indicator[1=yes 0=no],Hour[],StartMinute[],EndMinute[],DayType
3,5,Cumulative Day of Simulation[],Month[],Day of Month[],DST Indicator[1=yes 0=no],DayType  ! When Daily Meters Requested
4,2,Cumulative Days of Simulation[],Month[]  ! When Monthly Meters Requested
5,1,Cumulative Days of Simulation[] ! When Run Period Meters Requested
6,1,Calendar Year of Simulation[] ! When Annual Meters Requested
1528,1,Heating:EnergyTransfer [J] !Hourly
1577,1,Cooling:EnergyTransfer [J] !Hourly
16,1,Electricity:Facility [J] !Hourly
End of Data Dictionary
1,RUN PERIOD 1,  52.46,   5.52,   1.00,  -3.90
2,1, 1, 1, 0, 1, 0.00,60.00,Tuesday
16,3339296.514321888
1528,215739220.00349373
1577,0.0
2,1, 1, 1, 0, 2, 0.00,60.00,Tuesday
16,3339296.514321888
1528,207690072.44037881
1577,0.0
2,1, 1, 1, 0, 3, 0.00,60.00,Tuesday
16,3339296.514321888
1528,210662741.42307562
1577,0.0
2,1, 1, 1, 0, 4, 0.00,60.00,Tuesday
16,5993754.750384498
1528,213221032.74200106
1577,0.0
2,1, 1, 1, 0, 5, 0.00,60.00,Tuesday
16,3339296.514321888
1528,215120327.26644236
1577,0.0
2,1, 1, 1, 0, 6, 0.00,60.00,Tuesday
16,3339296.514321888
1528,218181723.19684818
1577,0.0
2,1, 1, 1, 0, 7, 0.00,60.00,Tuesday
16,6241317.446579892
1528,221799541.03360254
1577,0.0
2,1, 1, 1, 0, 8, 0.00,60.00,Tuesday
16,6241991.786171015
1528,117040915.27606392
1577,0.0
2,1, 1, 1, 0, 9, 0.00,60.00,Tuesday
16,6327781.251046179
1528,126924730.09793591
1577,0.0
2,1, 1, 1, 0,10, 0.00,60.00,Tuesday
16,5504866.914635533
1528,127139319.6307346
1577,0.0
2,1, 1, 1, 0,11, 0.00,60.00,Tuesday
16,4212270.025508682
1528,131089702.81628919
1577,0.0
2,1, 1, 1, 0,12, 0.00,60.00,Tuesday
16,3339296.514321888
1528,138771324.30659658
1577,0.0
2,1, 1, 1, 0,13, 0.00,60.00,Tuesday
16,6068796.105838731
1528,142662143.4716705
1577,0.0
2,1, 1, 1, 0,14, 0.00,60.00,Tuesday
16,3339296.514321888
1528,146206089.02325884
1577,0.0
2,1, 1, 1, 0,15, 0.00,60.00,Tuesday
16,6069204.718092497
1528,148000583.72266048
1577,0.0
2,1, 1, 1, 0,16, 0.00,60.00,Tuesday
16,3339296.514321888
1528,151852810.8335318
1577,0.0
2,1, 1, 1, 0,17, 0.00,60.00,Tuesday
16,5724600.678656495
1528,149771289.18971154
1577,0.0
2,1, 1, 1, 0,18, 0.00,60.00,Tuesday
16,3709834.557738369
1528,143912769.14979836
1577,0.0
2,1, 1, 1, 0,19, 0.00,60.00,Tuesday
16,6272218.328732764
1528,137556414.1384473
1577,0.0
2,1, 1, 1, 0,20, 0.00,60.00,Tuesday
16,6272266.541271737
1528,239388775.15700388
1577,0.0
2,1, 1, 1, 0,21, 0.00,60.00,Tuesday
16,6272665.492428261
1528,227343239.00473
1577,0.0
2,1, 1, 1, 0,22, 0.00,60.00,Tuesday
16,3339296.514321888
1528,221629995.08138824
1577,0.0
2,1, 1, 1, 0,23, 0.00,60.00,Tuesday
16,6241585.395978471
1528,226620994.92334142
1577,0.0
2,1, 1, 1, 0,24, 0.00,60.00,Tuesday
16,6241658.626025422
1528,232577105.50694987
1577,0.0
2,2, 1, 2, 0, 1, 0.00,60.00,Wednesday
16,3339296.514321888
1528,235295780.47774747
1577,0.0
2,2, 1, 2, 0, 2, 0.00,60.00,Wednesday
16,3339296.514321888
1528,230478275.01712418
1577,0.0
2,2, 1, 2, 0, 3, 0.00,60.00,Wednesday
16,5993574.010685571
1528,229236557.6268117
1577,0.0
2,2, 1, 2, 0, 4, 0.00,60.00,Wednesday
16,3339296.514321888
1528,234043919.78180903
1577,0.0
2,2, 1, 2, 0, 5, 0.00,60.00,Wednesday
16,3339296.514321888
1528,225722098.1867684
1577,0.0
2,2, 1, 2, 0, 6, 0.00,60.00,Wednesday
16,3339296.514321888
1528,219497739.84625876
1577,0.0
2,2, 1, 2, 0, 7, 0.00,60.00,Wednesday
16,6241946.01820772
1528,215879139.1412806
1577,0.0
2,2, 1, 2, 0, 8, 0.00,60.00,Wednesday
16,6241267.773685757
1528,97405288.73909749
1577,0.0
2,2, 1, 2, 0, 9, 0.00,60.00,Wednesday
16,6408318.052862861
1528,96166754.21986054
1577,0.0
2,2, 1, 2, 0,10, 0.00,60.00,Wednesday
16,6407765.582438486
1528,98556939.36110693
1577,0.0
2,2, 1, 2, 0,11, 0.00,60.00,Wednesday
16,3339296.514321888
1528,101184788.9446772
1577,0.0
2,2, 1, 2, 0,12, 0.00,60.00,Wednesday
16,6068603.600158106
1528,111550792.20993865
1577,0.0
2,2, 1, 2, 0,13, 0.00,60.00,Wednesday
16,3339296.514321888
1528,115261544.9346152
1577,0.0
2,2, 1, 2, 0,14, 0.00,60.00,Wednesday
16,3359652.0693817073
1528,116665590.76166683
1577,0.0
2,2, 1, 2, 0,15, 0.00,60.00,Wednesday
16,6048866.93050679
1528,104842119.94421767
1577,0.0
2,2, 1, 2, 0,16, 0.00,60.00,Wednesday
16,3339296.514321888
1528,100733358.88707426
1577,0.0
2,2, 1, 2, 0,17, 0.00,60.00,Wednesday
16,6069168.529191053
1528,105757035.76553799
1577,0.0
2,2, 1, 2, 0,18, 0.00,60.00,Wednesday
16,5837783.5781424865
1528,112210241.64478055
1577,0.0
2,2, 1, 2, 0,19, 0.00,60.00,Wednesday
16,3773992.4922045954
1528,128086152.90574315
1577,0.0
2,2, 1, 2, 0,20, 0.00,60.00,Wednesday
16,6272035.938629309
1528,242723539.31586197
1577,0.0
2,2, 1, 2, 0,21, 0.00,60.00,Wednesday
16,6272286.998135865
1528,234344066.1769458
1577,0.0
2,2, 1, 2, 0,22, 0.00,60.00,Wednesday
16,6241939.473737975
1528,230115423.56792876
1577,0.0
2,2, 1, 2, 0,23, 0.00,60.00,Wednesday
16,3339296.514321888
1528,233477959.54821718
1577,0.0
2,2, 1, 2, 0,24, 0.00,60.00,Wednesday
16,6241269.19208009
1528,239494848.5685673
1577,0.0
2,3, 1, 3, 0, 1, 0.00,60.00,Thursday
16,3339296.514321888
1528,250436165.9392513
1577,0.0
2,3, 1, 3, 0, 2, 0.00,60.00,Thursday
16,5993961.668404367
1528,257214987.7394953
1577,0.0
2,3, 1, 3, 0, 3, 0.00,60.00,Thursday
16,3339296.514321888
1528,257837931.78280753
1577,0.0
2,3, 1, 3, 0, 4, 0.00,60.00,Thursday
16,3339296.514321888
1528,263757563.1577464
1577,0.0
2,3, 1, 3, 0, 5, 0.00,60.00,Thursday
16,3339296.514321888
1528,263749779.49987942
1577,0.0
2,3, 1, 3, 0, 6, 0.00,60.00,Thursday
16,5993486.771186018
1528,267601041.34027863
1577,0.0
2,3, 1, 3, 0, 7, 0.00,60.00,Thursday
16,3672440.0771796294
1528,274872648.19723463
1577,0.0
2,3, 1, 3, 0, 8, 0.00,60.00,Thursday
16,5907761.250447102
1528,163982175.78375998
1577,0.0
2,3, 1, 3, 0, 9, 0.00,60.00,Thursday
16,6408490.624648204
1528,170941409.39401883
1577,0.0
2,3, 1, 3, 0,10, 0.00,60.00,Thursday
16,6408343.947507344
1528,166957364.4495182
1577,0.0
2,3, 1, 3, 0,11, 0.00,60.00,Thursday
16,4955323.081511421
1528,151462150.06094426
1577,0.0
2,3, 1, 3, 0,12, 0.00,60.00,Thursday
16,4452581.462626684
1528,142492829.01189712
1577,0.0
2,3, 1, 3, 0,13, 0.00,60.00,Thursday
16,3339296.514321888
1528,140340163.20892593
1577,0.0
2,3, 1, 3, 0,14, 0.00,60.00,Thursday
16,6068937.292106347
1528,147100133.29630494
1577,0.0
2,3, 1, 3, 0,15, 0.00,60.00,Thursday
16,3339296.514321888
1528,149417038.85443926
1577,0.0
2,3, 1, 3, 0,16, 0.00,60.00,Thursday
16,6069190.335562767
1528,164015260.08820313
1577,0.0
2,3, 1, 3, 0,17, 0.00,60.00,Thursday
16,3339296.514321888
1528,181060633.63464558
1577,0.0
2,3, 1, 3, 0,18, 0.00,60.00,Thursday
16,6272368.420232847
1528,192925443.96760604
1577,0.0
2,3, 1, 3, 0,19, 0.00,60.00,Thursday
16,6272892.705852188
1528,204751359.49194548
1577,0.0
2,3, 1, 3, 0,20, 0.00,60.00,Thursday
16,3339296.514321888
1528,318738689.4429191
1577,0.0
2,3, 1, 3, 0,21, 0.00,60.00,Thursday
16,6272874.38594049
1528,306352102.4670501
1577,0.0
2,3, 1, 3, 0,22, 0.00,60.00,Thursday
16,6241498.491474276
1528,296359078.63959676
1577,0.0
2,3, 1, 3, 0,23, 0.00,60.00,Thursday
16,6241770.032147268
1528,285019064.9043219
1577,0.0
2,3, 1, 3, 0,24, 0.00,60.00,Thursday
16,3339296.514321888
1528,274513723.80462456
1577,0.0
2,4, 1, 4, 0, 1, 0.00,60.00,Friday
16,5993958.916279811
1528,310493270.06298745
1577,0.0
2,4, 1, 4, 0, 2, 0.00,60.00,Friday
16,3339296.514321888
1528,337006495.02875084
1577,0.0
2,4, 1, 4, 0, 3, 0.00,60.00,Friday
16,3339296.514321888
1528,340686093.60562116
1577,0.0
2,4, 1, 4, 0, 4, 0.00,60.00,Friday
16,4103028.04287953
1528,345648081.1742717
1577,0.0
2,4, 1, 4, 0, 5, 0.00,60.00,Friday
16,5229782.749067878
1528,350172905.70654225
1577,0.0
2,4, 1, 4, 0, 6, 0.00,60.00,Friday
16,3339296.514321888
1528,353982583.7276287
1577,0.0
2,4, 1, 4, 0, 7, 0.00,60.00,Friday
16,6241918.657191658
1528,359419517.5981864
1577,0.0
2,4, 1, 4, 0, 8, 0.00,60.00,Friday
16,4617553.8935312405
1528,239188496.22830707
1577,0.0
2,4, 1, 4, 0, 9, 0.00,60.00,Friday
16,5503572.272207613
1528,233444968.08406508
1577,0.0
2,4, 1, 4, 0,10, 0.00,60.00,Friday
16,5961757.049945684
1528,226503855.22402692
1577,0.0
2,4, 1, 4, 0,11, 0.00,60.00,Friday
16,6069172.910866072
1528,219212868.2261834
1577,0.0
2,4, 1, 4, 0,12, 0.00,60.00,Friday
16,3339296.514321888
1528,211830376.01855004
1577,0.0
2,4, 1, 4, 0,13, 0.00,60.00,Friday
16,6068657.052634094
1528,204445736.19929674
1577,0.0
2,4, 1, 4, 0,14, 0.00,60.00,Friday
16,3339296.514321888
1528,205501655.351915
1577,0.0
2,4, 1, 4, 0,15, 0.00,60.00,Friday
16,6068797.420400668
1528,211694692.6211727
1577,0.0
2,4, 1, 4, 0,16, 0.00,60.00,Friday
16,3339296.514321888
1528,218107847.58185542
1577,0.0
2,4, 1, 4, 0,17, 0.00,60.00,Friday
16,3339296.514321888
1528,225740247.5121494
1577,0.0
2,4, 1, 4, 0,18, 0.00,60.00,Friday
16,6272918.632877404
1528,232637897.04942143
1577,0.0
2,4, 1, 4, 0,19, 0.00,60.00,Friday
16,6272827.854702933
1528,238728403.56786436
1577,0.0
2,4, 1, 4, 0,20, 0.00,60.00,Friday
16,6272434.854001312
1528,368611581.2538344
1577,0.0
2,4, 1, 4, 0,21, 0.00,60.00,Friday
16,5016803.014910609
1528,375988424.7006719
1577,0.0
2,4, 1, 4, 0,22, 0.00,60.00,Friday
16,4581269.254425557
1528,378933819.7331546
1577,0.0
2,4, 1, 4, 0,23, 0.00,60.00,Friday
16,6241961.786145309
1528,391834505.5741498
1577,0.0
2,4, 1, 4, 0,24, 0.00,60.00,Friday
16,6241273.118567275
1528,399608267.65225375
1577,0.0
2,5, 1, 5, 0, 1, 0.00,60.00,Saturday
16,3339296.514321888
1528,397655888.9013519
1577,0.0
2,5, 1, 5, 0, 2, 0.00,60.00,Saturday
16,3339296.514321888
1528,397591092.89613473
1577,0.0
2,5, 1, 5, 0, 3, 0.00,60.00,Saturday
16,3799665.2623478696
1528,399228649.45084846
1577,0.0
2,5, 1, 5, 0, 4, 0.00,60.00,Saturday
16,5533292.84541877
1528,400910122.0277224
1577,0.0
2,5, 1, 5, 0, 5, 0.00,60.00,Saturday
16,3339296.514321888
1528,402625599.3291365
1577,0.0
2,5, 1, 5, 0, 6, 0.00,60.00,Saturday
16,3339296.514321888
1528,404370403.2696597
1577,0.0
2,5, 1, 5, 0, 7, 0.00,60.00,Saturday
16,6241504.812530426
1528,407957991.44366837
1577,0.0
2,5, 1, 5, 0, 8, 0.00,60.00,Saturday
16,6241760.505934168
1528,286229491.3410293
1577,0.0
2,5, 1, 5, 0, 9, 0.00,60.00,Saturday
16,6407838.269128775
1528,279032410.89149976
1577,0.0
2,5, 1, 5, 0,10, 0.00,60.00,Saturday
16,6408500.529646087
1528,271073231.96996486
1577,0.0
2,5, 1, 5, 0,11, 0.00,60.00,Saturday
16,3339296.514321888
1528,262282355.9364672
1577,0.0
2,5, 1, 5, 0,12, 0.00,60.00,Saturday
16,3490681.4161883956
1528,252688704.0909592
1577,0.0
2,5, 1, 5, 0,13, 0.00,60.00,Saturday
16,5917725.170718884
1528,244344616.32873565
1577,0.0
2,5, 1, 5, 0,14, 0.00,60.00,Saturday
16,3339296.514321888
1528,242810408.02518654
1577,0.0
2,5, 1, 5, 0,15, 0.00,60.00,Saturday
16,6069176.370032717
1528,246206741.79182053
1577,0.0
2,5, 1, 5, 0,16, 0.00,60.00,Saturday
16,3339296.514321888
1528,249299654.49220976
1577,0.0
2,5, 1, 5, 0,17, 0.00,60.00,Saturday
16,6068674.457146909
1528,251618606.8446567
1577,0.0
2,5, 1, 5, 0,18, 0.00,60.00,Saturday
16,3339296.514321888
1528,254910571.46615475
1577,0.0
2,5, 1, 5, 0,19, 0.00,60.00,Saturday
16,6272924.794708675
1528,257627524.4443876
1577,0.0
2,5, 1, 5, 0,20, 0.00,60.00,Saturday
16,6272833.971274896
1528,373797933.6083419
1577,0.0
2,5, 1, 5, 0,21, 0.00,60.00,Saturday
16,6272463.390498264
1528,371775833.81550944
1577,0.0
2,5, 1, 5, 0,22, 0.00,60.00,Saturday
16,3946253.350354201
1528,370388852.843869
1577,0.0
2,5, 1, 5, 0,23, 0.00,60.00,Saturday
16,5634581.943356127
1528,367737538.24627376
1577,0.0
2,5, 1, 5, 0,24, 0.00,60.00,Saturday
16,6241714.70332757
1528,366925345.1119323
1577,0.0
2,6, 1, 6, 0, 1, 0.00,60.00,Sunday
16,3339296.514321888
1528,366233248.51266444
1577,0.0
2,6, 1, 6, 0, 2, 0.00,60.00,Sunday
16,3339296.514321888
1528,368198970.48974586
1577,0.0
2,6, 1, 6, 0, 3, 0.00,60.00,Sunday
16,5993956.680359269
1528,370535718.69664496
1577,0.0
2,6, 1, 6, 0, 4, 0.00,60.00,Sunday
16,3339296.514321888
1528,373405539.05673534
1577,0.0
2,6, 1, 6, 0, 5, 0.00,60.00,Sunday
16,3339296.514321888
1528,377048883.5158513
1577,0.0
2,6, 1, 6, 0, 6, 0.00,60.00,Sunday
16,5993539.377169462
1528,379485231.1221406
1577,0.0
2,6, 1, 6, 0, 7, 0.00,60.00,Sunday
16,3339296.514321888
1528,384154154.1788362
1577,0.0
2,6, 1, 6, 0, 8, 0.00,60.00,Sunday
16,6241146.710035026
1528,267490708.16623285
1577,0.0
2,6, 1, 6, 0, 9, 0.00,60.00,Sunday
16,6407708.573414361
1528,265941045.39804044
1577,0.0
2,6, 1, 6, 0,10, 0.00,60.00,Sunday
16,6407787.003499497
1528,264465384.8231836
1577,0.0
2,6, 1, 6, 0,11, 0.00,60.00,Sunday
16,3339296.514321888
1528,262130959.88583645
1577,0.0
2,6, 1, 6, 0,12, 0.00,60.00,Sunday
16,6068871.3546572365
1528,258862955.09039617
1577,0.0
2,6, 1, 6, 0,13, 0.00,60.00,Sunday
16,3339296.514321888
1528,255522672.7635243
1577,0.0
2,6, 1, 6, 0,14, 0.00,60.00,Sunday
16,6069196.585697321
1528,252172802.71351677
1577,0.0
2,6, 1, 6, 0,15, 0.00,60.00,Sunday
16,3339296.514321888
1528,248769884.1665436
1577,0.0
2,6, 1, 6, 0,16, 0.00,60.00,Sunday
16,5588671.985859741
1528,246579148.2954154
1577,0.0
2,6, 1, 6, 0,17, 0.00,60.00,Sunday
16,3819443.7742482238
1528,243880604.37750864
1577,0.0
2,6, 1, 6, 0,18, 0.00,60.00,Sunday
16,6272355.120244376
1528,240391349.79242295
1577,0.0
2,6, 1, 6, 0,19, 0.00,60.00,Sunday
16,4857097.197185435
1528,236869864.01822942
1577,0.0
2,6, 1, 6, 0,20, 0.00,60.00,Sunday
16,4754180.231557668
1528,350829513.24973994
1577,0.0
2,6, 1, 6, 0,21, 0.00,60.00,Sunday
16,6272385.297510633
1528,349300980.6050924
1577,0.0
2,6, 1, 6, 0,22, 0.00,60.00,Sunday
16,6241946.007989684
1528,348347969.54068536
1577,0.0
2,6, 1, 6, 0,23, 0.00,60.00,Sunday
16,4860333.60520404
1528,346229458.5711282
1577,0.0
2,6, 1, 6, 0,24, 0.00,60.00,Sunday
16,4720230.685661839
1528,345851187.82465726
1577,0.0
2,7, 1, 7, 0, 1, 0.00,60.00,Monday
16,5993952.102155546
1528,345596987.9970025
1577,0.0
2,7, 1, 7, 0, 2, 0.00,60.00,Monday
16,3339296.514321888
1528,362758827.9895345
1577,0.0
2,7, 1, 7, 0, 3, 0.00,60.00,Monday
16,3339296.514321888
1528,391895218.2023189
1577,0.0
2,7, 1, 7, 0, 4, 0.00,60.00,Monday
16,3339296.514321888
1528,422214012.1463524
1577,0.0
2,7, 1, 7, 0, 5, 0.00,60.00,Monday
16,5993598.467948005
1528,451692682.502327
1577,0.0
2,7, 1, 7, 0, 6, 0.00,60.00,Monday
16,3339296.514321888
1528,480772405.2454836
1577,0.0
2,7, 1, 7, 0, 7, 0.00,60.00,Monday
16,6241670.42548063
1528,513849368.9840244
1577,0.0
2,7, 1, 7, 0, 8, 0.00,60.00,Monday
16,3339296.514321888
1528,393545734.83676994
1577,0.0
2,7, 1, 7, 0, 9, 0.00,60.00,Monday
16,6408251.746481132
1528,375171535.57674015
1577,0.0
2,7, 1, 7, 0,10, 0.00,60.00,Monday
16,6407742.137768265
1528,355813094.90531105
1577,0.0
2,7, 1, 7, 0,11, 0.00,60.00,Monday
16,6068685.091156559
1528,336222758.43420464
1577,0.0
2,7, 1, 7, 0,12, 0.00,60.00,Monday
16,3339296.514321888
1528,316558353.8876194
1577,0.0
2,7, 1, 7, 0,13, 0.00,60.00,Monday
16,6069220.328718729
1528,296982704.29801553
1577,0.0
2,7, 1, 7, 0,14, 0.00,60.00,Monday
16,3339296.514321888
1528,286151575.41247684
1577,0.0
2,7, 1, 7, 0,15, 0.00,60.00,Monday
16,3339296.514321888
1528,281844764.5109177
1577,0.0
2,7, 1, 7, 0,16, 0.00,60.00,Monday
16,6069083.206495101
1528,277202689.25465524
1577,0.0
2,7, 1, 7, 0,17, 0.00,60.00,Monday
16,3339296.514321888
1528,273047274.87283933
1577,0.0
2,7, 1, 7, 0,18, 0.00,60.00,Monday
16,6272490.578835068
1528,268195119.4122152
1577,0.0
2,7, 1, 7, 0,19, 0.00,60.00,Monday
16,6272937.607295945
1528,263766484.52821577
1577,0.0
2,7, 1, 7, 0,20, 0.00,60.00,Monday
16,6272846.792717699
1528,375460948.9149705
1577,0.0
2,7, 1, 7, 0,21, 0.00,60.00,Monday
16,3339296.514321888
1528,368938020.7456366
1577,0.0
2,7, 1, 7, 0,22, 0.00,60.00,Monday
16,6241537.868696203
1528,362474300.5551856
1577,0.0
2,7, 1, 7, 0,23, 0.00,60.00,Monday
16,6241715.6002229955
1528,355324904.0239169
1577,0.0
2,7, 1, 7, 0,24, 0.00,60.00,Monday
16,5794290.732280467
1528,349494296.68883115
1577,0.0
2,8, 1, 8, 0, 1, 0.00,60.00,Tuesday
16,3747617.649753375
1528,344297733.17251784
1577,0.0
2,8, 1, 8, 0, 2, 0.00,60.00,Tuesday
16,3339296.514321888
1528,342332155.753641
1577,0.0
2,8, 1, 8, 0, 3, 0.00,60.00,Tuesday
16,3339296.514321888
1528,341866610.5429152
1577,0.0
2,8, 1, 8, 0, 4, 0.00,60.00,Tuesday
16,5993995.91183535
1528,342683313.7481084
1577,0.0
2,8, 1, 8, 0, 5, 0.00,60.00,Tuesday
16,3339296.514321888
1528,343030252.5753655
1577,0.0
2,8, 1, 8, 0, 6, 0.00,60.00,Tuesday
16,3339296.514321888
1528,342660676.05263716
1577,0.0
2,8, 1, 8, 0, 7, 0.00,60.00,Tuesday
16,6241288.33825618
1528,343843838.18591046
1577,0.0
2,8, 1, 8, 0, 8, 0.00,60.00,Tuesday
16,6241975.89078713
1528,218667520.6457158
1577,0.0
2,8, 1, 8, 0, 9, 0.00,60.00,Tuesday
16,6225538.031187495
1528,208557727.69818088
1577,0.0
2,8, 1, 8, 0,10, 0.00,60.00,Tuesday
16,5504726.557769759
1528,196780093.16761404
1577,0.0
2,8, 1, 8, 0,11, 0.00,60.00,Tuesday
16,4303155.661918677
1528,186393256.75323933
1577,0.0
2,8, 1, 8, 0,12, 0.00,60.00,Tuesday
16,3339296.514321888
1528,180864871.59265178
1577,0.0
2,8, 1, 8, 0,13, 0.00,60.00,Tuesday
16,6068845.113641879
1528,176198295.09658748
1577,0.0
2,8, 1, 8, 0,14, 0.00,60.00,Tuesday
16,3339296.514321888
1528,173098193.31583774
1577,0.0
2,8, 1, 8, 0,15, 0.00,60.00,Tuesday
16,6069199.278895834
1528,165440881.6595771
1577,0.0
2,8, 1, 8, 0,16, 0.00,60.00,Tuesday
16,3339296.514321888
1528,162478071.66832906
1577,0.0
2,8, 1, 8, 0,17, 0.00,60.00,Tuesday
16,5633684.462854933
1528,164434840.5106926
1577,0.0
2,8, 1, 8, 0,18, 0.00,60.00,Tuesday
16,3807595.160615471
1528,159304767.6028983
1577,0.0
2,8, 1, 8, 0,19, 0.00,60.00,Tuesday
16,6272204.664970251
1528,152294901.78937158
1577,0.0
2,8, 1, 8, 0,20, 0.00,60.00,Tuesday
16,6272298.992947476
1528,259210311.19971
1577,0.0
2,8, 1, 8, 0,21, 0.00,60.00,Tuesday
16,6272744.232050283
1528,246201210.62174505
1577,0.0
2,8, 1, 8, 0,22, 0.00,60.00,Tuesday
16,3339296.514321888
1528,231852068.62216902
1577,0.0
2,8, 1, 8, 0,23, 0.00,60.00,Tuesday
16,6241522.1729542855
1528,224011096.5687582
1577,0.0
2,8, 1, 8, 0,24, 0.00,60.00,Tuesday
16,6241736.416402061
1528,225107305.60416967
1577,0.0
2,9, 1, 9, 0, 1, 0.00,60.00,Wednesday
16,3339296.514321888
1528,228432346.80144292
1577,0.0
2,9, 1, 9, 0, 2, 0.00,60.00,Wednesday
16,3339296.514321888
1528,238896254.42243594
1577,0.0
2,9, 1, 9, 0, 3, 0.00,60.00,Wednesday
16,5993749.162990259
1528,252519423.7393663
1577,0.0
2,9, 1, 9, 0, 4, 0.00,60.00,Wednesday
16,3339296.514321888
1528,256022677.41084033
1577,0.0
2,9, 1, 9, 0, 5, 0.00,60.00,Wednesday
16,3339296.514321888
1528,244411299.02960417
1577,0.0
2,9, 1, 9, 0, 6, 0.00,60.00,Wednesday
16,3339296.514321888
1528,231914717.93376994
1577,0.0
2,9, 1, 9, 0, 7, 0.00,60.00,Wednesday
16,6241934.211634366
1528,228011653.8979556
1577,0.0
2,9, 1, 9, 0, 8, 0.00,60.00,Wednesday
16,6241271.910783421
1528,120651826.19936605
1577,0.0
2,9, 1, 9, 0, 9, 0.00,60.00,Wednesday
16,6408252.1471506385
1528,119972852.12295829
1577,0.0
2,9, 1, 9, 0,10, 0.00,60.00,Wednesday
16,6407742.275146946
1528,110932082.19745502
1577,0.0
2,9, 1, 9, 0,11, 0.00,60.00,Wednesday
16,3339296.514321888
1528,101152246.29412913
1577,0.0
2,9, 1, 9, 0,12, 0.00,60.00,Wednesday
16,6068634.798449071
1528,90518518.64258337
1577,0.0
2,9, 1, 9, 0,13, 0.00,60.00,Wednesday
16,3339296.514321888
1528,79876812.15665804
1577,0.0
2,9, 1, 9, 0,14, 0.00,60.00,Wednesday
16,3339296.514321888
1528,78365686.26769666
1577,0.0
2,9, 1, 9, 0,15, 0.00,60.00,Wednesday
16,6069230.923322987
1528,81142815.41291486
1577,0.0
2,9, 1, 9, 0,16, 0.00,60.00,Wednesday
16,3339296.514321888
1528,84298658.49419278
1577,0.0
2,9, 1, 9, 0,17, 0.00,60.00,Wednesday
16,6069157.281637618
1528,88059332.8738257
1577,0.0
2,9, 1, 9, 0,18, 0.00,60.00,Wednesday
16,5740314.629436752
1528,90670403.54805875
1577,0.0
2,9, 1, 9, 0,19, 0.00,60.00,Wednesday
16,3871406.0610010317
1528,93784193.17121458
1577,0.0
2,9, 1, 9, 0,20, 0.00,60.00,Wednesday
16,6272061.1329721045
1528,206814410.7904001
1577,0.0
2,9, 1, 9, 0,21, 0.00,60.00,Wednesday
16,6272323.289329365
1528,183972103.36569107
1577,0.0
2,9, 1, 9, 0,22, 0.00,60.00,Wednesday
16,6241927.652311225
1528,164747384.25485727
1577,0.0
2,9, 1, 9, 0,23, 0.00,60.00,Wednesday
16,3339296.514321888
1528,156447111.65983444
1577,0.0
2,9, 1, 9, 0,24, 0.00,60.00,Wednesday
16,6241277.169035621
1528,153806415.39686608
1577,0.0
2,10, 1,10, 0, 1, 0.00,60.00,Thursday
16,3339296.514321888
1528,156759079.53433478
1577,0.0
2,10, 1,10, 0, 2, 0.00,60.00,Thursday
16,5993950.673679199
1528,163969558.49377042
1577,0.0
2,10, 1,10, 0, 3, 0.00,60.00,Thursday
16,3339296.514321888
1528,186332641.57943374
1577,0.0
2,10, 1,10, 0, 4, 0.00,60.00,Thursday
16,3339296.514321888
1528,197640134.0744863
1577,0.0
2,10, 1,10, 0, 5, 0.00,60.00,Thursday
16,3339296.514321888
1528,198463534.78900862
1577,0.0
2,10, 1,10, 0, 6, 0.00,60.00,Thursday
16,5993619.02219872
1528,198848397.34937525
1577,0.0
2,10, 1,10, 0, 7, 0.00,60.00,Thursday
16,3567339.261779146
1528,199452619.12024593
1577,0.0
2,10, 1,10, 0, 8, 0.00,60.00,Thursday
16,6012871.392977063
1528,92549280.6301974
1577,0.0
2,10, 1,10, 0, 9, 0.00,60.00,Thursday
16,6408478.293049861
1528,101767243.80390862
1577,0.0
2,10, 1,10, 0,10, 0.00,60.00,Thursday
16,6408331.594923316
1528,109954909.6387379
1577,0.0
2,10, 1,10, 0,11, 0.00,60.00,Thursday
16,4766920.378525334
1528,96305221.65471104
1577,0.0
2,10, 1,10, 0,12, 0.00,60.00,Thursday
16,4640971.195437696
1528,86639330.37619667
1577,0.0
2,10, 1,10, 0,13, 0.00,60.00,Thursday
16,3339296.514321888
1528,89288403.41999623
1577,0.0
2,10, 1,10, 0,14, 0.00,60.00,Thursday
16,6069074.073098162
1528,89844078.24646647
1577,0.0
2,10, 1,10, 0,15, 0.00,60.00,Thursday
16,3339296.514321888
1528,91740515.23633279
1577,0.0
2,10, 1,10, 0,16, 0.00,60.00,Thursday
16,6069179.0589382835
1528,96762697.57353826
1577,0.0
2,10, 1,10, 0,17, 0.00,60.00,Thursday
16,3339296.514321888
1528,102377696.79993464
1577,0.0
2,10, 1,10, 0,18, 0.00,60.00,Thursday
16,6272417.179504216
1528,117017533.90605214
1577,0.0
2,10, 1,10, 0,19, 0.00,60.00,Thursday
16,6272953.266368597
1528,122325769.25402117
1577,0.0
2,10, 1,10, 0,20, 0.00,60.00,Thursday
16,3339296.514321888
1528,234861456.95232764
1577,0.0
2,10, 1,10, 0,21, 0.00,60.00,Thursday
16,6272862.467436422
1528,236200806.89820772
1577,0.0
2,10, 1,10, 0,22, 0.00,60.00,Thursday
16,6241445.333278703
1528,238625500.49249265
1577,0.0
2,10, 1,10, 0,23, 0.00,60.00,Thursday
16,6241857.358517832
1528,240354941.22536868
1577,0.0
2,10, 1,10, 0,24, 0.00,60.00,Thursday
16,3339296.514321888
1528,230640616.51012743
1577,0.0
2,11, 1,11, 0, 1, 0.00,60.00,Friday
16,5993947.880274821
1528,222688496.68867987
1577,0.0
2,11, 1,11, 0, 2, 0.00,60.00,Friday
16,3339296.514321888
1528,225157525.28982192
1577,0.0
2,11, 1,11, 0, 3, 0.00,60.00,Friday
16,3339296.514321888
1528,230594581.37557986
1577,0.0
2,11, 1,11, 0, 4, 0.00,60.00,Friday
16,3798754.9108534097
1528,236104643.43641838
1577,0.0
2,11, 1,11, 0, 5, 0.00,60.00,Friday
16,5534203.727634441
1528,239354299.32534462
1577,0.0
2,11, 1,11, 0, 6, 0.00,60.00,Friday
16,3339296.514321888
1528,237757320.9639581
1577,0.0
2,11, 1,11, 0, 7, 0.00,60.00,Friday
16,6241906.797339862
1528,236280385.46255913
1577,0.0
2,11, 1,11, 0, 8, 0.00,60.00,Friday
16,4512501.5753792
1528,123744026.76875
1577,0.0
2,11, 1,11, 0, 9, 0.00,60.00,Friday
16,5503558.342344074
1528,131638512.5388448
1577,0.0
2,11, 1,11, 0,10, 0.00,60.00,Friday
16,6072932.854047505
1528,132563699.22196276
1577,0.0
2,11, 1,11, 0,11, 0.00,60.00,Friday
16,6069156.391327988
1528,113973320.95351778
1577,0.0
2,11, 1,11, 0,12, 0.00,60.00,Friday
16,3339296.514321888
1528,113271842.47290312
1577,0.0
2,11, 1,11, 0,13, 0.00,60.00,Friday
16,6068603.562576007
1528,114567515.5996226
1577,0.0
2,11, 1,11, 0,14, 0.00,60.00,Friday
16,3339296.514321888
1528,115666695.28185248
1577,0.0
2,11, 1,11, 0,15, 0.00,60.00,Friday
16,6068963.09608203
1528,109055199.68890274
1577,0.0
2,11, 1,11, 0,16, 0.00,60.00,Friday
16,3339296.514321888
1528,121239496.92057492
1577,0.0
2,11, 1,11, 0,17, 0.00,60.00,Friday
16,3339296.514321888
1528,135517164.02324697
1577,0.0
2,11, 1,11, 0,18, 0.00,60.00,Friday
16,6272901.210495565
1528,133330294.26800963
1577,0.0
2,11, 1,11, 0,19, 0.00,60.00,Friday
16,6272810.418887017
1528,133137992.95178938
1577,0.0
2,11, 1,11, 0,20, 0.00,60.00,Friday
16,6272362.869456748
1528,247181122.38193855
1577,0.0
2,11, 1,11, 0,21, 0.00,60.00,Friday
16,4874153.638694771
1528,241576931.6643384
1577,0.0
2,11, 1,11, 0,22, 0.00,60.00,Friday
16,4722405.508035898
1528,239591837.2924257
1577,0.0
2,11, 1,11, 0,23, 0.00,60.00,Friday
16,6241945.874818619
1528,249076909.16516635
1577,0.0
2,11, 1,11, 0,24, 0.00,60.00,Friday
16,6241267.779546761
1528,244386055.78665102
1577,0.0
2,12, 1,12, 0, 1, 0.00,60.00,Saturday
16,3339296.514321888
1528,235378165.40939924
1577,0.0
2,12, 1,12, 0, 2, 0.00,60.00,Saturday
16,3339296.514321888
1528,231459341.7131076
1577,0.0
2,12, 1,12, 0, 3, 0.00,60.00,Saturday
16,3392534.683217762
1528,227651890.5345123
1577,0.0
2,12, 1,12, 0, 4, 0.00,60.00,Saturday
16,5940715.105319051
1528,221558462.08659798
1577,0.0
2,12, 1,12, 0, 5, 0.00,60.00,Saturday
16,3339296.514321888
1528,215253505.86777836
1577,0.0
2,12, 1,12, 0, 6, 0.00,60.00,Saturday
16,3339296.514321888
1528,213156958.28494018
1577,0.0
2,12, 1,12, 0, 7, 0.00,60.00,Saturday
16,6241588.159150699
1528,214135377.7446705
1577,0.0
2,12, 1,12, 0, 8, 0.00,60.00,Saturday
16,6241655.8662059605
1528,99319288.01726855
1577,0.0
2,12, 1,12, 0, 9, 0.00,60.00,Saturday
16,6407887.178652034
1528,102306206.05690308
1577,0.0
2,12, 1,12, 0,10, 0.00,60.00,Saturday
16,6408495.483388432
1528,104605123.45024914
1577,0.0
2,12, 1,12, 0,11, 0.00,60.00,Saturday
16,3339296.514321888
1528,116695918.11623111
1577,0.0
2,12, 1,12, 0,12, 0.00,60.00,Saturday
16,3339296.514321888
1528,120607941.6346604
1577,0.0
2,12, 1,12, 0,13, 0.00,60.00,Saturday
16,6069234.947316065
1528,114309717.43278225
1577,0.0
2,12, 1,12, 0,14, 0.00,60.00,Saturday
16,3339296.514321888
1528,117738401.23320556
1577,0.0
2,12, 1,12, 0,15, 0.00,60.00,Saturday
16,6069161.308705537
1528,111280368.01529919
1577,0.0
2,12, 1,12, 0,16, 0.00,60.00,Saturday
16,3339296.514321888
1528,109118675.48529959
1577,0.0
2,12, 1,12, 0,17, 0.00,60.00,Saturday
16,6068614.3561795
1528,115302466.72475858
1577,0.0
2,12, 1,12, 0,18, 0.00,60.00,Saturday
16,3339296.514321888
1528,124775498.8518911
1577,0.0
2,12, 1,12, 0,19, 0.00,60.00,Saturday
16,6272908.863681415
1528,130475712.51408993
1577,0.0
2,12, 1,12, 0,20, 0.00,60.00,Saturday
16,6272818.025280986
1528,244291450.6391232
1577,0.0
2,12, 1,12, 0,21, 0.00,60.00,Saturday
16,6272392.901308142
1528,242744043.9524899
1577,0.0
2,12, 1,12, 0,22, 0.00,60.00,Saturday
16,3806155.0105756735
1528,242548656.6256458
1577,0.0
2,12, 1,12, 0,23, 0.00,60.00,Saturday
16,5774768.796163879
1528,248060852.1727358
1577,0.0
2,12, 1,12, 0,24, 0.00,60.00,Saturday
16,6241615.511396652
1528,256778570.4142657
1577,0.0
2,13, 1,13, 0, 1, 0.00,60.00,Sunday
16,3339296.514321888
1528,261826630.57389984
1577,0.0
2,13, 1,13, 0, 2, 0.00,60.00,Sunday
16,3339296.514321888
1528,263021902.00278443
1577,0.0
2,13, 1,13, 0, 3, 0.00,60.00,Sunday
16,5993929.17645492
1528,257967966.6945055
1577,0.0
2,13, 1,13, 0, 4, 0.00,60.00,Sunday
16,3339296.514321888
1528,260872784.61205083
1577,0.0
2,13, 1,13, 0, 5, 0.00,60.00,Sunday
16,3339296.514321888
1528,267904559.04221445
1577,0.0
2,13, 1,13, 0, 6, 0.00,60.00,Sunday
16,5993765.750065872
1528,273534189.10222393
1577,0.0
2,13, 1,13, 0, 7, 0.00,60.00,Sunday
16,3339296.514321888
1528,273178650.79932535
1577,0.0
2,13, 1,13, 0, 8, 0.00,60.00,Sunday
16,6241192.7851054575
1528,152200841.16291925
1577,0.0
2,13, 1,13, 0, 9, 0.00,60.00,Sunday
16,6407691.865200816
1528,156957156.32350284
1577,0.0
2,13, 1,13, 0,10, 0.00,60.00,Sunday
16,6407827.988099311
1528,153695397.1577429
1577,0.0
2,13, 1,13, 0,11, 0.00,60.00,Sunday
16,3339296.514321888
1528,123018132.29197961
1577,0.0
2,13, 1,13, 0,12, 0.00,60.00,Sunday
16,6069043.1304220315
1528,101540453.70106475
1577,0.0
2,13, 1,13, 0,13, 0.00,60.00,Sunday
16,3339296.514321888
1528,106615511.03765607
1577,0.0
2,13, 1,13, 0,14, 0.00,60.00,Sunday
16,6069181.451988507
1528,111904248.52304435
1577,0.0
2,13, 1,13, 0,15, 0.00,60.00,Sunday
16,3339296.514321888
1528,113463433.60688023
1577,0.0
2,13, 1,13, 0,16, 0.00,60.00,Sunday
16,5335790.06631799
1528,114530766.05968957
1577,0.0
2,13, 1,13, 0,17, 0.00,60.00,Sunday
16,4072210.386503615
1528,114804640.80074863
1577,0.0
2,13, 1,13, 0,18, 0.00,60.00,Sunday
16,6272301.619853474
1528,116165563.79210266
1577,0.0
2,13, 1,13, 0,19, 0.00,60.00,Sunday
16,4725838.850262042
1528,117024729.51572405
1577,0.0
2,13, 1,13, 0,20, 0.00,60.00,Sunday
16,4885390.651284933
1528,231272366.95554963
1577,0.0
2,13, 1,13, 0,21, 0.00,60.00,Sunday
16,6272455.150527792
1528,227827480.8247461
1577,0.0
2,13, 1,13, 0,22, 0.00,60.00,Sunday
16,6241930.123510256
1528,225937498.76629752
1577,0.0
2,13, 1,13, 0,23, 0.00,60.00,Sunday
16,4719538.10446115
1528,224134807.77954376
1577,0.0
2,13, 1,13, 0,24, 0.00,60.00,Sunday
16,4861033.335623735
1528,222329981.72075182
1577,0.0
2,14, 1,14, 0, 1, 0.00,60.00,Monday
16,5848484.0356575325
1528,221117704.43433398
1577,0.0
2,14, 1,14, 0, 2, 0.00,60.00,Monday
16,3484639.772480991
1528,219514408.80738997
1577,0.0
2,14, 1,14, 0, 3, 0.00,60.00,Monday
16,3339296.514321888
1528,217267020.55250874
1577,0.0
2,14, 1,14, 0, 4, 0.00,60.00,Monday
16,3339296.514321888
1528,216238720.73018417
1577,0.0
2,14, 1,14, 0, 5, 0.00,60.00,Monday
16,5993860.57960115
1528,214770452.95006245
1577,0.0
2,14, 1,14, 0, 6, 0.00,60.00,Monday
16,3339296.514321888
1528,212621371.3767494
1577,0.0
2,14, 1,14, 0, 7, 0.00,60.00,Monday
16,6241777.96985357
1528,211430792.34751132
1577,0.0
2,14, 1,14, 0, 8, 0.00,60.00,Monday
16,3339296.514321888
1528,94846291.7909919
1577,0.0
2,14, 1,14, 0, 9, 0.00,60.00,Monday
16,6408168.482840847
1528,93077035.03514491
1577,0.0
2,14, 1,14, 0,10, 0.00,60.00,Monday
16,6407716.406334877
1528,90481312.25217123
1577,0.0
2,14, 1,14, 0,11, 0.00,60.00,Monday
16,6068792.758627422
1528,87516485.49449633
1577,0.0
2,14, 1,14, 0,12, 0.00,60.00,Monday
16,3339296.514321888
1528,84366697.88947907
1577,0.0