Program Version,EnergyPlus, Version 23.2.0-7636e6b3e9, YMD=2025.02.02 01:33
1,5,Environment Title[],Latitude[deg],Longitude[deg],Time Zone[],Elevation[m]
2,8,Day of Simulation[],Month[],Day of Month[],DST Indicator[1=yes 0=no],Hour[],StartMinute[],EndMinute[],DayType
3,5,Cumulative Day of Simulation[],Month[],Day of Month[],DST Indicator[1=yes 0=no],DayType  ! When Daily Report Variables Requested
4,2,Cumulative Days of Simulation[],Month[]  ! When Monthly Report Variables Requested
5,1,Cumulative Days of Simulation[] ! When Run Period Report Variables Requested
6,1,Calendar Year of Simulation[] ! When Annual Report Variables Requested
7,7,Environment,Site Outdoor Air Drybulb Temperature [C] !Daily [Value,Min,Hour,Minute,Max,Hour,Minute]
8,7,Environment,Site Outdoor Air Dewpoint Temperature [C] !Daily [Value,Min,Hour,Minute,Max,Hour,Minute]
9,7,Environment,Site Outdoor Air Wetbulb Temperature [C] !Daily [Value,Min,Hour,Minute,Max,Hour,Minute]
10,7,Environment,Site Diffuse Solar Radiation Rate per Area [W/m2] !Daily [Value,Min,Hour,Minute,Max,Hour,Minute]
11,7,Environment,Site Direct Solar Radiation Rate per Area [W/m2] !Daily [Value,Min,Hour,Minute,Max,Hour,Minute]
12,7,Environment,Site Solar Azimuth Angle [deg] !Daily [Value,Min,Hour,Minute,Max,Hour,Minute]
13,7,Environment,Site Solar Altitude Angle [deg] !Daily [Value,Min,Hour,Minute,Max,Hour,Minute]
1790,7,MYDHW_1_WATERHEATER,Water Heater Heating Energy [J] !Daily [Value,Min,Hour,Minute,Max,Hour,Minute]
804,1,Heating:EnergyTransfer [J] !Hourly
853,1,Cooling:EnergyTransfer [J] !Hourly
16,1,Electricity:Facility [J] !Hourly
End of Data Dictionary
1,RUN PERIOD 1,  52.46,   5.52,   1.00,  -3.90
2,1, 1, 1, 0, 1, 0.00,60.00,Tuesday
16,4566240.878071144
804,7800470.925514863
853,0.0
2,1, 1, 1, 0, 2, 0.00,60.00,Tuesday
16,4566240.878071144
804,8245897.71317649
853,0.0
2,1, 1, 1, 0, 3, 0.00,60.00,Tuesday
16,4566240.878071144
804,8580305.268516054
853,0.0
2,1, 1, 1, 0, 4, 0.00,60.00,Tuesday
16,7220699.114133755
804,8936043.721295785
853,0.0
2,1, 1, 1, 0, 5, 0.00,60.00,Tuesday
16,4566240.878071144
804,9231570.398894712
853,0.0
2,1, 1, 1, 0, 6, 0.00,60.00,Tuesday
16,4566240.878071144
804,9526696.877952084
853,0.0
2,1, 1, 1, 0, 7, 0.00,60.00,Tuesday
16,7767822.485814117
804,9708856.547398845
853,0.0
2,1, 1, 1, 0, 8, 0.00,60.00,Tuesday
16,7767187.892154642
804,25704876.11299395
853,0.0
2,1, 1, 1, 0, 9, 0.00,60.00,Tuesday
16,11840161.462009452
804,24153762.930710595
853,0.0
2,1, 1, 1, 0,10, 0.00,60.00,Tuesday
16,8202949.715732097
804,21866317.74947816
853,0.0
2,1, 1, 1, 0,11, 0.00,60.00,Tuesday
16,7375653.327386812
804,20118387.092209674
853,0.0
2,1, 1, 1, 0,12, 0.00,60.00,Tuesday
16,4566240.878071144
804,19099630.244943134
853,0.0
2,1, 1, 1, 0,13, 0.00,60.00,Tuesday
16,7375717.214717248
804,18554810.95255109
853,0.0
2,1, 1, 1, 0,14, 0.00,60.00,Tuesday
16,4566240.878071144
804,18261137.493047994
853,0.0
2,1, 1, 1, 0,15, 0.00,60.00,Tuesday
16,7375741.000157318
804,17686613.648989677
853,0.0
2,1, 1, 1, 0,16, 0.00,60.00,Tuesday
16,7375764.749092566
804,18103080.007663008
853,0.0
2,1, 1, 1, 0,17, 0.00,60.00,Tuesday
16,4566240.878071144
804,19986577.138827886
853,0.0
2,1, 1, 1, 0,18, 0.00,60.00,Tuesday
16,7843937.748930341
804,20260864.624373287
853,0.0
2,1, 1, 1, 0,19, 0.00,60.00,Tuesday
16,8780211.878017362
804,19925911.95063226
853,0.0
2,1, 1, 1, 0,20, 0.00,60.00,Tuesday
16,10181631.460121766
804,4561370.35716198
853,0.0
2,1, 1, 1, 0,21, 0.00,60.00,Tuesday
16,7846494.002944419
804,6728398.79368616
853,0.0
2,1, 1, 1, 0,22, 0.00,60.00,Tuesday
16,7767664.691039505
804,7067315.633403499
853,0.0
2,1, 1, 1, 0,23, 0.00,60.00,Tuesday
16,7767983.327241281
804,7350311.232286179
853,0.0
2,1, 1, 1, 0,24, 0.00,60.00,Tuesday
16,7767211.684303677
804,7408536.119749403
853,0.0
3,1, 1, 1, 0,Tuesday
7,2.891666666666666,1.4,16,60,4.2, 1,60
8,-0.03749999999999998,-2.5,10,60,2.1,24,60
9,1.854739388525906,0.4001495373206364,13,60,3.0998073170807516, 1,60
10,17.307291666666668,0.0, 1,15,86.0,12,30
11,26.854166666666668,0.0, 1,15,152.0,10,30
12,171.9210012821981,1.7466514206994332, 1,45,341.00180793165543,24,60
13,-20.325946072972584,-60.625898049216175, 1,45,14.446671545683287,13,45
1790,51477279.93419224,0.0, 1,15,3273406.5618570982, 9,60
2,2, 1, 2, 0, 1, 0.00,60.00,Wednesday
16,4566240.878071144
804,8438049.413938783
853,0.0
2,2, 1, 2, 0, 2, 0.00,60.00,Wednesday
16,7220901.276371142
804,8980943.395008933
853,0.0
2,2, 1, 2, 0, 3, 0.00,60.00,Wednesday
16,4566240.878071144
804,9133264.86072792
853,0.0
2,2, 1, 2, 0, 4, 0.00,60.00,Wednesday
16,4566240.878071144
804,9568091.644813376
853,0.0
2,2, 1, 2, 0, 5, 0.00,60.00,Wednesday
16,4566240.878071144
804,9589110.206084743
853,0.0
2,2, 1, 2, 0, 6, 0.00,60.00,Wednesday
16,7220481.018794775
804,9590817.55645731
853,0.0
2,2, 1, 2, 0, 7, 0.00,60.00,Wednesday
16,7767469.645400862
804,9675113.928028572
853,0.0
2,2, 1, 2, 0, 8, 0.00,60.00,Wednesday
16,7768061.861225342
804,25086859.0120297
853,0.0
2,2, 1, 2, 0, 9, 0.00,60.00,Wednesday
16,8203086.31092212
804,22860232.773317054
853,0.0
2,2, 1, 2, 0,10, 0.00,60.00,Wednesday
16,11840043.587297661
804,20403816.546050757
853,0.0
2,2, 1, 2, 0,11, 0.00,60.00,Wednesday
16,4566240.878071144
804,18192797.76635009
853,0.0
2,2, 1, 2, 0,12, 0.00,60.00,Wednesday
16,7375343.269248202
804,16868082.47364331
853,0.0
2,2, 1, 2, 0,13, 0.00,60.00,Wednesday
16,4566240.878071144
804,15564360.517053187
853,0.0
2,2, 1, 2, 0,14, 0.00,60.00,Wednesday
16,7375517.423149246
804,13263413.616038505
853,0.0
2,2, 1, 2, 0,15, 0.00,60.00,Wednesday
16,7375702.197313977
804,10182624.81130306
853,0.0
2,2, 1, 2, 0,16, 0.00,60.00,Wednesday
16,4566240.878071144
804,11067926.373492036
853,0.0
2,2, 1, 2, 0,17, 0.00,60.00,Wednesday
16,7375726.005815111
804,14731817.661466245
853,0.0
2,2, 1, 2, 0,18, 0.00,60.00,Wednesday
16,7844188.008388387
804,15978604.614559337
853,0.0
2,2, 1, 2, 0,19, 0.00,60.00,Wednesday
16,7843478.519759487
804,16752772.71478477
853,0.0
2,2, 1, 2, 0,20, 0.00,60.00,Wednesday
16,7843380.580981098
804,3207764.8539404273
853,0.0
2,2, 1, 2, 0,21, 0.00,60.00,Wednesday
16,7862432.634110566
804,5437658.969216289
853,0.0
2,2, 1, 2, 0,22, 0.00,60.00,Wednesday
16,9173995.987124141
804,5975532.6145450715
853,0.0
2,2, 1, 2, 0,23, 0.00,60.00,Wednesday
16,9173642.785458915
804,6509333.5753309745
853,0.0
2,2, 1, 2, 0,24, 0.00,60.00,Wednesday
16,8138558.924523895
804,7112818.163881167
853,0.0
3,2, 1, 2, 0,Wednesday
7,3.686458333333334,2.7,19,60,4.7,15,60
8,0.859375,-2.5,24,60,3.0, 8,60
9,2.7411140405471186,1.1746816380023941, 1,60,3.8128607493951674, 8,60
10,16.630208333333332,0.0, 1,15,76.0,12,30
11,62.854166666666664,0.0, 1,15,310.0,15,30
12,171.8131188905313,1.5259563868488346, 1,45,340.83120702053344,24,60
13,-20.25473323294449,-60.545572589949266, 1,45,14.530053212951353,13,45
1790,53798323.59780792,0.0, 1,15,3273419.971591989,10,15
2,3, 1, 3, 0, 1, 0.00,60.00,Thursday
16,4566240.878071144
804,7473145.227709696
853,0.0
2,3, 1, 3, 0, 2, 0.00,60.00,Thursday
16,4566240.878071144
804,7796663.642642763
853,0.0
2,3, 1, 3, 0, 3, 0.00,60.00,Thursday
16,4566240.878071144
804,7958600.673857795
853,0.0
2,3, 1, 3, 0, 4, 0.00,60.00,Thursday
16,7220380.37771453
804,8304958.471927138
853,0.0
2,3, 1, 3, 0, 5, 0.00,60.00,Thursday
16,4566240.878071144
804,8548485.721269125
853,0.0
2,3, 1, 3, 0, 6, 0.00,60.00,Thursday
16,4566240.878071144
804,8951301.585874747
853,0.0
2,3, 1, 3, 0, 7, 0.00,60.00,Thursday
16,7767248.016013185
804,9532602.126608012
853,0.0
2,3, 1, 3, 0, 8, 0.00,60.00,Thursday
16,7766980.4938659165
804,25728966.473872148
853,0.0
2,3, 1, 3, 0, 9, 0.00,60.00,Thursday
16,11840022.453582093
804,23823076.30932773
853,0.0
2,3, 1, 3, 0,10, 0.00,60.00,Thursday
16,8202493.531967282
804,21136789.836726625
853,0.0
2,3, 1, 3, 0,11, 0.00,60.00,Thursday
16,7375291.0968778
804,18427536.675592672
853,0.0
2,3, 1, 3, 0,12, 0.00,60.00,Thursday
16,4566240.878071144
804,16489944.686170502
853,0.0
2,3, 1, 3, 0,13, 0.00,60.00,Thursday
16,7375186.691500902
804,15380579.27829113
853,0.0
2,3, 1, 3, 0,14, 0.00,60.00,Thursday
16,5877150.215052964
804,12757621.470103431
853,0.0
2,3, 1, 3, 0,15, 0.00,60.00,Thursday
16,6064223.454207929
804,9224723.211045757
853,0.0
2,3, 1, 3, 0,16, 0.00,60.00,Thursday
16,7375129.436423517
804,11119905.514112873
853,0.0
2,3, 1, 3, 0,17, 0.00,60.00,Thursday
16,4566240.878071144
804,16461275.516709492
853,0.0
2,3, 1, 3, 0,18, 0.00,60.00,Thursday
16,7843483.137032105
804,18237939.04794907
853,0.0
2,3, 1, 3, 0,19, 0.00,60.00,Thursday
16,9722958.529231364
804,19021379.36769191
853,0.0
2,3, 1, 3, 0,20, 0.00,60.00,Thursday
16,9242753.61456449
804,4563699.674061988
853,0.0
2,3, 1, 3, 0,21, 0.00,60.00,Thursday
16,7843559.802566072
804,7250790.8064621
853,0.0
2,3, 1, 3, 0,22, 0.00,60.00,Thursday
16,7768044.337335134
804,7975509.761453465
853,0.0
2,3, 1, 3, 0,23, 0.00,60.00,Thursday
16,7767299.85336803
804,8398447.584228348
853,0.0
2,3, 1, 3, 0,24, 0.00,60.00,Thursday
16,7767419.551677417
804,8606287.94301911
853,0.0
3,3, 1, 3, 0,Thursday
7,1.1666666666666665,-1.0,19,60,2.775, 1,15
8,-0.6007504992247794,-2.2,13,60,1.3,24,60
9,0.3890060654580482,-1.321738782587282,19,60,2.1129291271731074, 1,15
10,14.333333333333334,0.0, 1,15,65.0,13,30
11,122.921875,0.0, 1,15,558.0,13,30
12,171.70635220439564,1.3083254005832814, 1,45,340.6669445746221,24,60
13,-20.176959693862347,-60.45738645598138, 1,45,14.6208584194948,13,45
1790,51474176.699194156,0.0, 1,15,3273432.1268461463, 9,15
2,4, 1, 4, 0, 1, 0.00,60.00,Friday
16,4566240.878071144
804,9559248.13812923
853,0.0
2,4, 1, 4, 0, 2, 0.00,60.00,Friday
16,7220926.255011224
804,10440717.665817313
853,0.0
2,4, 1, 4, 0, 3, 0.00,60.00,Friday
16,4566240.878071144
804,10861793.440347373
853,0.0
2,4, 1, 4, 0, 4, 0.00,60.00,Friday
16,4566240.878071144
804,11263098.294488814
853,0.0
2,4, 1, 4, 0, 5, 0.00,60.00,Friday
16,5963702.645246455
804,11897467.17322117
853,0.0
2,4, 1, 4, 0, 6, 0.00,60.00,Friday
16,5822881.95421055
804,12422520.521552464
853,0.0
2,4, 1, 4, 0, 7, 0.00,60.00,Friday
16,7767986.279394221
804,12866221.648187239
853,0.0
2,4, 1, 4, 0, 8, 0.00,60.00,Friday
16,7767427.186559498
804,30272701.240972646
853,0.0
2,4, 1, 4, 0, 9, 0.00,60.00,Friday
16,8799110.401182488
804,27617236.723848306
853,0.0
2,4, 1, 4, 0,10, 0.00,60.00,Friday
16,11243363.795467602
804,24493920.05144042
853,0.0
2,4, 1, 4, 0,11, 0.00,60.00,Friday
16,4566240.878071144
804,21748012.287002467
853,0.0
2,4, 1, 4, 0,12, 0.00,60.00,Friday
16,7375574.316210525
804,19697488.72638219
853,0.0
2,4, 1, 4, 0,13, 0.00,60.00,Friday
16,5132193.082799388
804,18291110.125593152
853,0.0
2,4, 1, 4, 0,14, 0.00,60.00,Friday
16,6809434.268157868
804,15388745.62109493
853,0.0
2,4, 1, 4, 0,15, 0.00,60.00,Friday
16,7375249.1060684975
804,11653261.714574683
853,0.0
2,4, 1, 4, 0,16, 0.00,60.00,Friday
16,4566240.878071144
804,13509165.350374844
853,0.0
2,4, 1, 4, 0,17, 0.00,60.00,Friday
16,7375162.23750883
804,18950961.098458566
853,0.0
2,4, 1, 4, 0,18, 0.00,60.00,Friday
16,7844326.816703338
804,20685208.534925528
853,0.0
2,4, 1, 4, 0,19, 0.00,60.00,Friday
16,7843583.032360323
804,21390038.279049277
853,0.0
2,4, 1, 4, 0,20, 0.00,60.00,Friday
16,7843577.078222822
804,6493247.345324057
853,0.0
2,4, 1, 4, 0,21, 0.00,60.00,Friday
16,8803722.152607385
804,10023669.393497441
853,0.0
2,4, 1, 4, 0,22, 0.00,60.00,Friday
16,9173592.823541708
804,11170999.474222545
853,0.0
2,4, 1, 4, 0,23, 0.00,60.00,Friday
16,8624891.26740592
804,12256827.362171622
853,0.0
2,4, 1, 4, 0,24, 0.00,60.00,Friday
16,7767383.227383197
804,12974522.62126991
853,0.0
3,4, 1, 4, 0,Friday
7,-2.370833333333333,-5.0,23,60,0.5999999999999999, 1,15
8,-3.617708333333334,-7.7,24,60,0.3750000000000001, 1,15
9,-2.8442852708335775,-5.828734757976214,24,60,0.4861570244684519, 1,15
10,14.375,0.0, 1,15,66.0,13,30
11,129.13541666666666,0.0, 1,15,576.0,13,30
12,171.60081020210077,1.0940828941618326, 1,45,340.50922888156305,24,60
13,-20.09265613455602,-60.36138875158809, 1,45,14.71905019080346,13,45
1790,53815960.11842108,0.0, 1,15,3273445.5295111462, 9,30
2,5, 1, 5, 0, 1, 0.00,60.00,Saturday
16,4566240.878071144
804,13227408.82656608
853,0.0
2,5, 1, 5, 0, 2, 0.00,60.00,Saturday
16,4566240.878071144
804,13527370.00322492
853,0.0
2,5, 1, 5, 0, 3, 0.00,60.00,Saturday
16,5751542.170546951
804,14032158.460850414
853,0.0
2,5, 1, 5, 0, 4, 0.00,60.00,Saturday
16,6035051.869510062
804,14504098.15622737
853,0.0
2,5, 1, 5, 0, 5, 0.00,60.00,Saturday
16,4566240.878071144
804,14894415.105417501
853,0.0
2,5, 1, 5, 0, 6, 0.00,60.00,Saturday
16,4566240.878071144
804,15300497.984077657
853,0.0
2,5, 1, 5, 0, 7, 0.00,60.00,Saturday
16,7767286.178232966
804,15681333.047345586
853,0.0
2,5, 1, 5, 0, 8, 0.00,60.00,Saturday
16,8584837.297233362
804,34142229.756179534
853,0.0
2,5, 1, 5, 0, 9, 0.00,60.00,Saturday
16,10912229.74416019
804,31407434.54052618
853,0.0
2,5, 1, 5, 0,10, 0.00,60.00,Saturday
16,8202352.485449383
804,28388424.791860472
853,0.0
2,5, 1, 5, 0,11, 0.00,60.00,Saturday
16,7375787.843924166
804,25839333.531935137
853,0.0
2,5, 1, 5, 0,12, 0.00,60.00,Saturday
16,4566240.878071144
804,23941093.28852912
853,0.0
2,5, 1, 5, 0,13, 0.00,60.00,Saturday
16,7375811.521039618
804,22648467.188236542
853,0.0
2,5, 1, 5, 0,14, 0.00,60.00,Saturday
16,7375630.526624553
804,19561720.124063764
853,0.0
2,5, 1, 5, 0,15, 0.00,60.00,Saturday
16,4566240.878071144
804,15765979.959761135
853,0.0
2,5, 1, 5, 0,16, 0.00,60.00,Saturday
16,7375429.762034358
804,17518999.150343403
853,0.0
2,5, 1, 5, 0,17, 0.00,60.00,Saturday
16,4566240.878071144
804,22076393.30880964
853,0.0
2,5, 1, 5, 0,18, 0.00,60.00,Saturday
16,8714961.90617082
804,23313775.792719238
853,0.0
2,5, 1, 5, 0,19, 0.00,60.00,Saturday
16,10181038.887499262
804,23480897.168055918
853,0.0
2,5, 1, 5, 0,20, 0.00,60.00,Saturday
16,7912829.731387626
804,7083820.332890449
853,0.0
2,5, 1, 5, 0,21, 0.00,60.00,Saturday
16,7844259.898966156
804,10162803.28111725
853,0.0
2,5, 1, 5, 0,22, 0.00,60.00,Saturday
16,7767285.903260997
804,10957739.040443713
853,0.0
2,5, 1, 5, 0,23, 0.00,60.00,Saturday
16,7767441.57581765
804,11528943.395395316
853,0.0
2,5, 1, 5, 0,24, 0.00,60.00,Saturday
16,7768051.930216152
804,11996601.265199358
853,0.0
3,5, 1, 5, 0,Saturday
7,-4.088541666666665,-5.5, 7,60,-2.8,13,60
8,-7.080208333333332,-7.45, 1,15,-6.7, 1,60
9,-5.141229228510597,-6.135298049949361, 7,60,-4.298956651781032,13,60
10,14.5703125,0.0, 1,15,65.0,13,30
11,132.4921875,0.0, 1,15,603.0,13,30
12,171.49660012976298,0.8835410953785034, 1,45,340.35825202416595,24,60
13,-20.001856138640335,-60.257633494339274, 1,45,14.82458830946985,13,45
1790,51377160.874378346,0.0, 1,15,2950217.118805511,21,45
2,6, 1, 6, 0, 1, 0.00,60.00,Sunday
16,6805963.607498523
804,12369438.154060844
853,0.0
2,6, 1, 6, 0, 2, 0.00,60.00,Sunday
16,4980871.616284892
804,12706550.749624915
853,0.0
2,6, 1, 6, 0, 3, 0.00,60.00,Sunday
16,4566240.878071144
804,12979088.067554928
853,0.0
2,6, 1, 6, 0, 4, 0.00,60.00,Sunday
16,4566240.878071144
804,13163510.04715506
853,0.0
2,6, 1, 6, 0, 5, 0.00,60.00,Sunday
16,7220940.046946213
804,13336259.07649723
853,0.0
2,6, 1, 6, 0, 6, 0.00,60.00,Sunday
16,4566240.878071144
804,13464344.97249931
853,0.0
2,6, 1, 6, 0, 7, 0.00,60.00,Sunday
16,7767402.790980893
804,13597547.989662848
853,0.0
2,6, 1, 6, 0, 8, 0.00,60.00,Sunday
16,7767311.686409025
804,31313311.097300455
853,0.0
2,6, 1, 6, 0, 9, 0.00,60.00,Sunday
16,9794040.39364334
804,28713539.449258238
853,0.0
2,6, 1, 6, 0,10, 0.00,60.00,Sunday
16,10247026.727765441
804,26345774.30731639
853,0.0
2,6, 1, 6, 0,11, 0.00,60.00,Sunday
16,4566240.878071144
804,24162991.77007026
853,0.0
2,6, 1, 6, 0,12, 0.00,60.00,Sunday
16,7375749.046085635
804,22310752.26104928
853,0.0
2,6, 1, 6, 0,13, 0.00,60.00,Sunday
16,7375772.782678019
804,21322629.76408147
853,0.0
2,6, 1, 6, 0,14, 0.00,60.00,Sunday
16,4566240.878071144
804,20748491.875421055
853,0.0
2,6, 1, 6, 0,15, 0.00,60.00,Sunday
16,7375796.4828742985
804,20185894.35508742
853,0.0
2,6, 1, 6, 0,16, 0.00,60.00,Sunday
16,4566240.878071144
804,20595808.271131165
853,0.0
2,6, 1, 6, 0,17, 0.00,60.00,Sunday
16,7375784.306041798
804,21361229.55665037
853,0.0
2,6, 1, 6, 0,18, 0.00,60.00,Sunday
16,7843490.772317205
804,21226590.799000695
853,0.0
2,6, 1, 6, 0,19, 0.00,60.00,Sunday
16,7844274.705379687
804,20834438.24817039
853,0.0
2,6, 1, 6, 0,20, 0.00,60.00,Sunday
16,7843333.9282296775
804,4974754.359261466
853,0.0
2,6, 1, 6, 0,21, 0.00,60.00,Sunday
16,10138161.423331384
804,7888313.466057711
853,0.0
2,6, 1, 6, 0,22, 0.00,60.00,Sunday
16,8728188.537584808
804,8696934.106166089
853,0.0
2,6, 1, 6, 0,23, 0.00,60.00,Sunday
16,7767435.556263475
804,9201778.779612623
853,0.0
2,6, 1, 6, 0,24, 0.00,60.00,Sunday
16,7767289.858372476
804,9585820.249305274
853,0.0
3,6, 1, 6, 0,Sunday
7,-3.4229166666666675,-4.6, 7,60,-2.4,19,60
8,-4.572395833333333,-7.1, 1,15,-3.0,24,60
9,-3.8650041755420497,-4.887844760743663, 2,60,-2.6504321491632616,24,60
10,16.927083333333332,0.0, 1,15,89.0,12,30
11,4.8203125,0.0, 1,15,29.0,15,30
12,171.39382734271808,0.676999179191866, 1,45,340.21418969258576,24,60
13,-19.90459616452433,-60.14617945944964, 1,45,14.937429352245028,13,45
1790,53843848.61706557,0.0, 1,15,2950320.9116304703,21,15
2,7, 1, 7, 0, 1, 0.00,60.00,Monday
16,4566240.878071144
804,9929036.145803835
853,0.0
2,7, 1, 7, 0, 2, 0.00,60.00,Monday
16,4566240.878071144
804,10399869.175306778
853,0.0
2,7, 1, 7, 0, 3, 0.00,60.00,Monday
16,7220906.100526623
804,11197392.323984923
853,0.0
2,7, 1, 7, 0, 4, 0.00,60.00,Monday
16,4566240.878071144
804,12145541.041353863
853,0.0
2,7, 1, 7, 0, 5, 0.00,60.00,Monday
16,4566240.878071144
804,13347774.919729233
853,0.0
2,7, 1, 7, 0, 6, 0.00,60.00,Monday
16,4566240.878071144
804,14291504.705610365
853,0.0
2,7, 1, 7, 0, 7, 0.00,60.00,Monday
16,8471983.228928946
804,15262526.824230477
853,0.0
2,7, 1, 7, 0, 8, 0.00,60.00,Monday
16,9174845.906604048
804,33687164.862881385
853,0.0
2,7, 1, 7, 0, 9, 0.00,60.00,Monday
16,9442700.095411817
804,30546577.235301685
853,0.0
2,7, 1, 7, 0,10, 0.00,60.00,Monday
16,8223292.220550822
804,27361480.24424935
853,0.0
2,7, 1, 7, 0,11, 0.00,60.00,Monday
16,7360182.018763641
804,24427668.649411004
853,0.0
2,7, 1, 7, 0,12, 0.00,60.00,Monday
16,7375566.1608805135
804,21965858.84010523
853,0.0
2,7, 1, 7, 0,13, 0.00,60.00,Monday
16,4566240.878071144
804,20314722.728560004
853,0.0
2,7, 1, 7, 0,14, 0.00,60.00,Monday
16,7375380.260793802
804,17686316.632777926
853,0.0
2,7, 1, 7, 0,15, 0.00,60.00,Monday
16,4566240.878071144
804,15036852.88154706
853,0.0
2,7, 1, 7, 0,16, 0.00,60.00,Monday
16,7375244.832385963
804,16530956.135010652
853,0.0
2,7, 1, 7, 0,17, 0.00,60.00,Monday
16,5704593.783024947
804,20635425.006456032
853,0.0
2,7, 1, 7, 0,18, 0.00,60.00,Monday
16,9796508.92342471
804,21675638.54585149
853,0.0
2,7, 1, 7, 0,19, 0.00,60.00,Monday
16,7843453.432072192
804,21747054.879668683
853,0.0
2,7, 1, 7, 0,20, 0.00,60.00,Monday
16,7844360.564275911
804,5845563.218454706
853,0.0
2,7, 1, 7, 0,21, 0.00,60.00,Monday
16,7843525.802608114
804,8713227.349470261
853,0.0
2,7, 1, 7, 0,22, 0.00,60.00,Monday
16,7768097.366462372
804,9474600.07784849
853,0.0
2,7, 1, 7, 0,23, 0.00,60.00,Monday
16,7767229.146371269
804,10112458.218277177
853,0.0
2,7, 1, 7, 0,24, 0.00,60.00,Monday
16,7767578.148676245
804,10643927.47736866
853,0.0
3,7, 1, 7, 0,Monday
7,-5.505729166666664,-11.1, 7,60,-2.3,24,60
8,-6.389583333333333,-12.1, 7,60,-2.9, 1,60
9,-5.813797856992925,-11.366139782034363, 7,60,-2.600129425188394, 1,60
10,18.200520833333332,0.0, 1,15,84.0,12,30
11,80.8359375,0.0, 1,15,390.0,13,30
12,171.29259514926343,0.4747425056558858, 1,45,340.0772010768144,24,60
13,-19.800915512093123,-60.02709001319141, 1,45,15.057526730624629,13,45
1790,51056417.75809723,0.0, 1,15,3264540.3971706703,10,30
2,8, 1, 8, 0, 1, 0.00,60.00,Tuesday
16,7220942.324088333
804,11129082.536976542
853,0.0
2,8, 1, 8, 0, 2, 0.00,60.00,Tuesday
16,4566240.878071144
804,11498915.698824512
853,0.0
2,8, 1, 8, 0, 3, 0.00,60.00,Tuesday
16,4566240.878071144
804,11804822.90458451
853,0.0
2,8, 1, 8, 0, 4, 0.00,60.00,Tuesday
16,7220418.32564347
804,12242360.46986822
853,0.0
2,8, 1, 8, 0, 5, 0.00,60.00,Tuesday
16,4566240.878071144
804,12545745.406622782
853,0.0
2,8, 1, 8, 0, 6, 0.00,60.00,Tuesday
16,4566240.878071144
804,12735237.91883808
853,0.0
2,8, 1, 8, 0, 7, 0.00,60.00,Tuesday
16,7768042.861900695
804,12924824.076078784
853,0.0
2,8, 1, 8, 0, 8, 0.00,60.00,Tuesday
16,7767410.372686611
804,30031023.90668139
853,0.0
2,8, 1, 8, 0, 9, 0.00,60.00,Tuesday
16,11839730.5340581
804,27167179.10040305
853,0.0
2,8, 1, 8, 0,10, 0.00,60.00,Tuesday
16,8203324.61504973
804,24771951.0118602
853,0.0
2,8, 1, 8, 0,11, 0.00,60.00,Tuesday
16,7375126.535722622
804,23070689.88718047
853,0.0
2,8, 1, 8, 0,12, 0.00,60.00,Tuesday
16,4566240.878071144
804,21805187.800917506
853,0.0
2,8, 1, 8, 0,13, 0.00,60.00,Tuesday
16,7375165.521597207
804,21028721.10017761
853,0.0
2,8, 1, 8, 0,14, 0.00,60.00,Tuesday
16,4566240.878071144
804,20779125.476118047
853,0.0
2,8, 1, 8, 0,15, 0.00,60.00,Tuesday
16,7375255.1222090125
804,20453410.597648837
853,0.0
2,8, 1, 8, 0,16, 0.00,60.00,Tuesday
16,6956565.676730918
804,20300437.193749808
853,0.0
2,8, 1, 8, 0,17, 0.00,60.00,Tuesday
16,4985070.583938151
804,20284780.920106612
853,0.0
2,8, 1, 8, 0,18, 0.00,60.00,Tuesday
16,7844377.937246587
804,19972792.002590593
853,0.0
2,8, 1, 8, 0,19, 0.00,60.00,Tuesday
16,8264327.736602599
804,19548365.53824334
853,0.0
2,8, 1, 8, 0,20, 0.00,60.00,Tuesday
16,10181673.469298594
804,3980274.1832954274
853,0.0
2,8, 1, 8, 0,21, 0.00,60.00,Tuesday
16,8361919.0005154945
804,6251431.006020177
853,0.0
2,8, 1, 8, 0,22, 0.00,60.00,Tuesday
16,7767337.580910146
804,6559410.738262272
853,0.0
2,8, 1, 8, 0,23, 0.00,60.00,Tuesday
16,7768008.185253247
804,6960307.926545919
853,0.0
2,8, 1, 8, 0,24, 0.00,60.00,Tuesday
16,7767372.844908593
804,7390246.247605489
853,0.0
3,8, 1, 8, 0,Tuesday
7,0.33385416666666695,-2.25, 1,15,4.0,23,60
8,-0.19583404686953979,-3.6, 7,60,4.0,23,60
9,0.1188314416176298,-2.7575005134912995, 7,60,4.0,23,60
10,6.432291666666667,0.0, 1,15,34.0,12,30
11,0.3151041666666667,0.0, 1,15,7.0,10,30
12,171.19300465716188,0.2770419467789127, 1,45,339.9474288361953,24,60
13,-19.69085628613162,-59.900432936670626, 1,45,15.184830734836614,13,45
1790,53864760.080771565,0.0, 1,30,3273295.9221375384, 9,60
2,9, 1, 9, 0, 1, 0.00,60.00,Wednesday
16,4566240.878071144
804,7724436.421681033
853,0.0
2,9, 1, 9, 0, 2, 0.00,60.00,Wednesday
16,7220668.605591007
804,8456790.596679322
853,0.0
2,9, 1, 9, 0, 3, 0.00,60.00,Wednesday
16,4566240.878071144
804,9312834.58976934
853,0.0
2,9, 1, 9, 0, 4, 0.00,60.00,Wednesday
16,4566240.878071144
804,9657365.00781224
853,0.0
2,9, 1, 9, 0, 5, 0.00,60.00,Wednesday
16,4566240.878071144
804,9491654.60349758
853,0.0
2,9, 1, 9, 0, 6, 0.00,60.00,Wednesday
16,7220594.033999201
804,9021408.233168738
853,0.0
2,9, 1, 9, 0, 7, 0.00,60.00,Wednesday
16,7767243.36479606
804,8813819.942907616
853,0.0
2,9, 1, 9, 0, 8, 0.00,60.00,Wednesday
16,7767948.718760056
804,24964436.722902544
853,0.0
2,9, 1, 9, 0, 9, 0.00,60.00,Wednesday
16,8202766.797050428
804,22791684.21535454
853,0.0
2,9, 1, 9, 0,10, 0.00,60.00,Wednesday
16,11840285.828303223
804,19912270.321802724
853,0.0
2,9, 1, 9, 0,11, 0.00,60.00,Wednesday
16,4566240.878071144
804,17272763.747730203
853,0.0
2,9, 1, 9, 0,12, 0.00,60.00,Wednesday
16,7375172.183493422
804,15296239.524500996
853,0.0
2,9, 1, 9, 0,13, 0.00,60.00,Wednesday
16,4566240.878071144
804,14261664.480938684
853,0.0
2,9, 1, 9, 0,14, 0.00,60.00,Wednesday
16,7375128.160181921
804,13824742.516759323
853,0.0
2,9, 1, 9, 0,15, 0.00,60.00,Wednesday
16,6213200.59671098
804,14483385.500139311
853,0.0
2,9, 1, 9, 0,16, 0.00,60.00,Wednesday
16,5728174.970302419
804,15487718.855194826
853,0.0
2,9, 1, 9, 0,17, 0.00,60.00,Wednesday
16,7375191.806279732
804,16084061.9539226
853,0.0
2,9, 1, 9, 0,18, 0.00,60.00,Wednesday
16,7843808.530868813
804,17097043.553286925
853,0.0
2,9, 1, 9, 0,19, 0.00,60.00,Wednesday
16,7843652.712857548
804,20105272.526160743
853,0.0
2,9, 1, 9, 0,20, 0.00,60.00,Wednesday
16,7843497.3348119
804,2719059.1862524217
853,0.0
2,9, 1, 9, 0,21, 0.00,60.00,Wednesday
16,7843491.441931435
804,4328538.016051133
853,0.0
2,9, 1, 9, 0,22, 0.00,60.00,Wednesday
16,8630414.584343627
804,4375845.998480552
853,0.0
2,9, 1, 9, 0,23, 0.00,60.00,Wednesday
16,9173601.385575533
804,4562643.608812315
853,0.0
2,9, 1, 9, 0,24, 0.00,60.00,Wednesday
16,8700440.498633826
804,4865721.112967655
853,0.0
3,9, 1, 9, 0,Wednesday
7,4.736458333333332,2.1, 3,60,7.6,23,60
8,4.126040580561692,1.9, 1,60,5.999997196412721,13,60
9,4.590807866781274,2.0999984741210938, 3,60,6.748006875248453,23,60
10,18.317708333333332,0.0, 1,15,94.0,12,30
11,18.375,0.0, 1,15,158.0,13,30
12,171.0951546233548,0.08415330395139851, 1,45,339.824999142154,24,60
13,-19.574463356569648,-59.76628024130013, 1,45,15.319288581092687,13,45
1790,53795651.17428947,0.0, 1,15,3273308.9473766997,10,15
2,10, 1,10, 0, 1, 0.00,60.00,Thursday
16,4566240.878071144
804,5795556.450771827
853,0.0
2,10, 1,10, 0, 2, 0.00,60.00,Thursday
16,4566240.878071144
804,5994571.360595422
853,0.0
2,10, 1,10, 0, 3, 0.00,60.00,Thursday
16,4566240.878071144
804,7162918.622603601
853,0.0
2,10, 1,10, 0, 4, 0.00,60.00,Thursday
16,7220815.938663257
804,7994202.726236451
853,0.0
2,10, 1,10, 0, 5, 0.00,60.00,Thursday
16,4566240.878071144
804,8318491.61733924
853,0.0
2,10, 1,10, 0, 6, 0.00,60.00,Thursday
16,4566240.878071144
804,8526705.556331232
853,0.0
2,10, 1,10, 0, 7, 0.00,60.00,Thursday
16,7767478.351309406
804,8734673.962567508
853,0.0
2,10, 1,10, 0, 8, 0.00,60.00,Thursday
16,7767062.102520353
804,24165257.149509177
853,0.0
2,10, 1,10, 0, 9, 0.00,60.00,Thursday
16,11840252.045285424
804,22649020.101597253
853,0.0
2,10, 1,10, 0,10, 0.00,60.00,Thursday
16,8202704.213936275
804,20475754.85472982
853,0.0
2,10, 1,10, 0,11, 0.00,60.00,Thursday
16,7375778.9535777755
804,17905213.52093144
853,0.0
2,10, 1,10, 0,12, 0.00,60.00,Thursday
16,4566240.878071144
804,15905294.585626181
853,0.0
2,10, 1,10, 0,13, 0.00,60.00,Thursday
16,7375802.6443161275
804,14895900.518063264
853,0.0
2,10, 1,10, 0,14, 0.00,60.00,Thursday
16,4674544.5873722825
804,13890074.203973733
853,0.0
2,10, 1,10, 0,15, 0.00,60.00,Thursday
16,7267415.1249470785
804,14061001.226079525
853,0.0
2,10, 1,10, 0,16, 0.00,60.00,Thursday
16,7375499.144498779
804,15521806.313401345
853,0.0
2,10, 1,10, 0,17, 0.00,60.00,Thursday
16,4566240.878071144
804,16468922.931035709
853,0.0
2,10, 1,10, 0,18, 0.00,60.00,Thursday
16,7843662.399079866
804,17126781.174359996
853,0.0
2,10, 1,10, 0,19, 0.00,60.00,Thursday
16,9210886.487737477
804,17278247.56632641
853,0.0
2,10, 1,10, 0,20, 0.00,60.00,Thursday
16,9754445.861133795
804,3217152.2363082026
853,0.0
2,10, 1,10, 0,21, 0.00,60.00,Thursday
16,7843454.954755531
804,5490143.768346846
853,0.0
2,10, 1,10, 0,22, 0.00,60.00,Thursday
16,7767932.672066951
804,6140454.23199037
853,0.0
2,10, 1,10, 0,23, 0.00,60.00,Thursday
16,7767590.054891488
804,6619000.439633889
853,0.0
2,10, 1,10, 0,24, 0.00,60.00,Thursday
16,7767226.43229889
804,6682675.215741649
853,0.0
3,10, 1,10, 0,Thursday
7,4.616666666666666,2.7,23,60,7.5249999999999995, 1,15
8,2.0005208333333333,0.2, 7,60,5.3999999999999995, 1,15
9,3.6733112254525153,2.509699567522247,23,60,6.459245160919081, 1,15
10,18.4375,0.0, 1,15,91.0,13,30
11,35.565104166666664,0.0, 1,15,199.0,10,30
12,171.00130137365522,0.1036831833804491, 1,45,339.71002178991677,24,60
13,-19.451784315637955,-59.624707977317236, 1,45,15.460844461957508,13,45
1790,51476811.33706318,0.0, 1,15,3273322.280323454, 9,15
2,11, 1,11, 0, 1, 0.00,60.00,Friday
16,4566240.878071144
804,6730129.031727363
853,0.0
2,11, 1,11, 0, 2, 0.00,60.00,Friday
16,7220370.253098223
804,7102122.040633122
853,0.0
2,11, 1,11, 0, 3, 0.00,60.00,Friday
16,4566240.878071144
804,7665686.41975705
853,0.0
2,11, 1,11, 0, 4, 0.00,60.00,Friday
16,4566240.878071144
804,8373519.155064253
853,0.0
2,11, 1,11, 0, 5, 0.00,60.00,Friday
16,4566240.878071144
804,9054970.855785796
853,0.0
2,11, 1,11, 0, 6, 0.00,60.00,Friday
16,7220897.717142386
804,9377129.994167801
853,0.0
2,11, 1,11, 0, 7, 0.00,60.00,Friday
16,7767807.500244895
804,9343706.073108269
853,0.0
2,11, 1,11, 0, 8, 0.00,60.00,Friday
16,7767819.349179159
804,24862951.3633978
853,0.0
2,11, 1,11, 0, 9, 0.00,60.00,Friday
16,8416946.788896188
804,23126708.54484681
853,0.0
2,11, 1,11, 0,10, 0.00,60.00,Friday
16,11625946.398968529
804,20756784.09703996
853,0.0
2,11, 1,11, 0,11, 0.00,60.00,Friday
16,4566240.878071144
804,18194387.157960385
853,0.0
2,11, 1,11, 0,12, 0.00,60.00,Friday
16,7375740.009304054
804,16684379.960770823
853,0.0
2,11, 1,11, 0,13, 0.00,60.00,Friday
16,4566240.878071144
804,15707344.094388945
853,0.0
2,11, 1,11, 0,14, 0.00,60.00,Friday
16,7375763.759759933
804,13825939.096313024
853,0.0
2,11, 1,11, 0,15, 0.00,60.00,Friday
16,7375787.473788369
804,11188904.772556871
853,0.0
2,11, 1,11, 0,16, 0.00,60.00,Friday
16,4566240.878071144
804,12589862.512538698
853,0.0
2,11, 1,11, 0,17, 0.00,60.00,Friday
16,7375811.151470982
804,16475660.231879855
853,0.0
2,11, 1,11, 0,18, 0.00,60.00,Friday
16,7844283.559525462
804,17380023.769002654
853,0.0
2,11, 1,11, 0,19, 0.00,60.00,Friday
16,7843459.102417592
804,17559065.482999474
853,0.0
2,11, 1,11, 0,20, 0.00,60.00,Friday
16,7843502.843598081
804,3742400.923712807
853,0.0
2,11, 1,11, 0,21, 0.00,60.00,Friday
16,8292189.2386189345
804,6172336.317550544
853,0.0
2,11, 1,11, 0,22, 0.00,60.00,Friday
16,9173730.981744552
804,6791956.371937647
853,0.0
2,11, 1,11, 0,23, 0.00,60.00,Friday
16,9124400.441092094
804,7610982.551992652
853,0.0
2,11, 1,11, 0,24, 0.00,60.00,Friday
16,7767697.662348291
804,8009591.676117594
853,0.0
3,11, 1,11, 0,Friday
7,3.1302083333333326,2.1,23,60,4.4,15,60
8,1.0171875000000001,0.1, 7,60,2.4, 3,60
9,2.372332722381356,1.54409270954401,23,60,3.567697330803043, 1,60
10,16.3828125,0.0, 1,15,76.0,13,30
11,100.76822916666667,0.0, 1,15,475.0,13,30
12,170.9110217294324,0.2862432384600441, 1,45,339.602590374645,24,60
13,-19.322869432033745,-59.47579603669277, 1,45,15.609439599683608,13,45
1790,53807453.37358944,0.0, 1,15,3273335.691418431, 9,30
2,12, 1,12, 0, 1, 0.00,60.00,Saturday