Program Version,EnergyPlus, Version 23.2.0-7636e6b3e9, YMD=2025.01.19 23:22
1,5,Environment Title[],Latitude[deg],Longitude[deg],Time Zone[],Elevation[m]
2,8,Day of Simulation[],Month[],Day of Month[],DST Indicator[1=yes 0=no],Hour[],StartMinute[],EndMinute[],DayType
3,5,Cumulative Day of Simulation[],Month[],Day of Month[],DST Indicator[1=yes 0=no],DayType  ! When Daily Meters Requested
4,2,Cumulative Days of Simulation[],Month[]  ! When Monthly Meters Requested
5,1,Cumulative Days of Simulation[] ! When Run Period Meters Requested
6,1,Calendar Year of Simulation[] ! When Annual Meters Requested
469,1,Heating:EnergyTransfer [J] !Hourly
518,1,Cooling:EnergyTransfer [J] !Hourly
16,1,Electricity:Facility [J] !Hourly
End of Data Dictionary
1,RUN PERIOD 1,  52.46,   5.52,   1.00,  -3.90
2,1, 1, 1, 0, 1, 0.00,60.00,Tuesday
16,1712339.9184327582
469,4344683.690323375
518,0.0
2,1, 1, 1, 0, 2, 0.00,60.00,Tuesday
16,1712339.9184327582
469,4580253.567476505
518,0.0
2,1, 1, 1, 0, 3, 0.00,60.00,Tuesday
16,1712339.9184327582
469,4804961.697072806
518,0.0
2,1, 1, 1, 0, 4, 0.00,60.00,Tuesday
16,4366798.154495369
469,5042906.856569773
518,0.0
2,1, 1, 1, 0, 5, 0.00,60.00,Tuesday
16,1712339.9184327582
469,5241960.650213281
518,0.0
2,1, 1, 1, 0, 6, 0.00,60.00,Tuesday
16,1712339.9184327582
469,5446507.412729875
518,0.0
2,1, 1, 1, 0, 7, 0.00,60.00,Tuesday
16,4614360.8506907625
469,6503710.010701634
518,0.0
2,1, 1, 1, 0, 8, 0.00,60.00,Tuesday
16,4615035.190281894
469,17888641.775973417
518,0.0
2,1, 1, 1, 0, 9, 0.00,60.00,Tuesday
16,4700824.655198623
469,16937862.108131304
518,0.0
2,1, 1, 1, 0,10, 0.00,60.00,Tuesday
16,3877910.318746468
469,14089813.65012913
518,0.0
2,1, 1, 1, 0,11, 0.00,60.00,Tuesday
16,2585313.429582637
469,12524331.20377159
518,0.0
2,1, 1, 1, 0,12, 0.00,60.00,Tuesday
16,1712339.9184327582
469,12173740.843713671
518,0.0
2,1, 1, 1, 0,13, 0.00,60.00,Tuesday
16,4441839.509946986
469,12187255.276941005
518,0.0
2,1, 1, 1, 0,14, 0.00,60.00,Tuesday
16,1712339.9184327582
469,12446434.737313667
518,0.0
2,1, 1, 1, 0,15, 0.00,60.00,Tuesday
16,4442248.122203612
469,12361026.830681212
518,0.0
2,1, 1, 1, 0,16, 0.00,60.00,Tuesday
16,1712339.9184327582
469,13011463.153732833
518,0.0
2,1, 1, 1, 0,17, 0.00,60.00,Tuesday
16,4097644.087808367
469,14263375.857139528
518,0.0
2,1, 1, 1, 0,18, 0.00,60.00,Tuesday
16,2082877.9564286857
469,14504343.982960004
518,0.0
2,1, 1, 1, 0,19, 0.00,60.00,Tuesday
16,4645261.732844694
469,14359976.307075448
518,0.0
2,1, 1, 1, 0,20, 0.00,60.00,Tuesday
16,4645391.647815982
469,2934627.5619185963
518,0.0
2,1, 1, 1, 0,21, 0.00,60.00,Tuesday
16,4645709.099257313
469,4621619.813452728
518,0.0
2,1, 1, 1, 0,22, 0.00,60.00,Tuesday
16,1712339.9184327582
469,4807460.0731507605
518,0.0
2,1, 1, 1, 0,23, 0.00,60.00,Tuesday
16,4614628.621425963
469,4132796.8823962547
518,0.0
2,1, 1, 1, 0,24, 0.00,60.00,Tuesday
16,4614702.229031506
469,4234699.306863302
518,0.0
2,2, 1, 2, 0, 1, 0.00,60.00,Wednesday
16,1712339.9184327582
469,4821977.375642108
518,0.0
2,2, 1, 2, 0, 2, 0.00,60.00,Wednesday
16,1712339.9184327582
469,5107690.409573886
518,0.0
2,2, 1, 2, 0, 3, 0.00,60.00,Wednesday
16,4366617.803578848
469,5207738.162162739
518,0.0
2,2, 1, 2, 0, 4, 0.00,60.00,Wednesday
16,1712339.9184327582
469,5494351.680961538
518,0.0
2,2, 1, 2, 0, 5, 0.00,60.00,Wednesday
16,1712339.9184327582
469,5494330.09662487
518,0.0
2,2, 1, 2, 0, 6, 0.00,60.00,Wednesday
16,1712339.9184327582
469,5500486.6576811485
518,0.0
2,2, 1, 2, 0, 7, 0.00,60.00,Wednesday
16,4614989.390704249
469,6443768.550410837
518,0.0
2,2, 1, 2, 0, 8, 0.00,60.00,Wednesday
16,4614311.179596397
469,17502204.085546747
518,0.0
2,2, 1, 2, 0, 9, 0.00,60.00,Wednesday
16,4781361.275708798
469,16083433.112692453
518,0.0
2,2, 1, 2, 0,10, 0.00,60.00,Wednesday
16,4780808.919328036
469,13637070.73364035
518,0.0
2,2, 1, 2, 0,11, 0.00,60.00,Wednesday
16,1712339.9184327582
469,11242812.672137234
518,0.0
2,2, 1, 2, 0,12, 0.00,60.00,Wednesday
16,4441647.057360776
469,9140731.450124525
518,0.0
2,2, 1, 2, 0,13, 0.00,60.00,Wednesday
16,1712339.9184327582
469,7610790.572463937
518,0.0
2,2, 1, 2, 0,14, 0.00,60.00,Wednesday
16,1732191.5945847067
469,6382285.327529818
518,0.0
2,2, 1, 2, 0,15, 0.00,60.00,Wednesday
16,4422414.667235057
469,5647071.340161278
518,0.0
2,2, 1, 2, 0,16, 0.00,60.00,Wednesday
16,1712339.9184327582
469,7425446.97456456
518,0.0
2,2, 1, 2, 0,17, 0.00,60.00,Wednesday
16,4442211.903147007
469,9923501.198249534
518,0.0
2,2, 1, 2, 0,18, 0.00,60.00,Wednesday
16,4210565.633171748
469,11003301.965439089
518,0.0
2,2, 1, 2, 0,19, 0.00,60.00,Wednesday
16,2147297.0888982518
469,11773005.829422042
518,0.0
2,2, 1, 2, 0,20, 0.00,60.00,Wednesday
16,4645000.228832678
469,1741833.73795309
518,0.0
2,2, 1, 2, 0,21, 0.00,60.00,Wednesday
16,4645330.210876485
469,3679295.0629868684
518,0.0
2,2, 1, 2, 0,22, 0.00,60.00,Wednesday
16,4614982.945874688
469,4056436.8685313035
518,0.0
2,2, 1, 2, 0,23, 0.00,60.00,Wednesday
16,1712339.9184327582
469,3487374.543658782
518,0.0
2,2, 1, 2, 0,24, 0.00,60.00,Wednesday
16,4614312.570442353
469,3869891.08770556
518,0.0
2,3, 1, 3, 0, 1, 0.00,60.00,Thursday
16,1712339.9184327582
469,4138410.0534239067
518,0.0
2,3, 1, 3, 0, 2, 0.00,60.00,Thursday
16,4367005.135784265
469,4367154.272560157
518,0.0
2,3, 1, 3, 0, 3, 0.00,60.00,Thursday
16,1712339.9184327582
469,4483719.466811249
518,0.0
2,3, 1, 3, 0, 4, 0.00,60.00,Thursday
16,1712339.9184327582
469,4728134.264821013
518,0.0
2,3, 1, 3, 0, 5, 0.00,60.00,Thursday
16,1712339.9184327582
469,4890204.562206138
518,0.0
2,3, 1, 3, 0, 6, 0.00,60.00,Thursday
16,4366529.587217178
469,5163667.374324801
518,0.0
2,3, 1, 3, 0, 7, 0.00,60.00,Thursday
16,2046088.35835202
469,6692594.717811406
518,0.0
2,3, 1, 3, 0, 8, 0.00,60.00,Thursday
16,4280199.744108597
469,17725628.96301695
518,0.0
2,3, 1, 3, 0, 9, 0.00,60.00,Thursday
16,4781534.099721507
469,16604133.349592287
518,0.0
2,3, 1, 3, 0,10, 0.00,60.00,Thursday
16,4781387.422701406
469,12410891.226093538
518,0.0
2,3, 1, 3, 0,11, 0.00,60.00,Thursday
16,3329450.80647943
469,8403273.758406995
518,0.0
2,3, 1, 3, 0,12, 0.00,60.00,Thursday
16,2824540.6867279094
469,5261950.657630499
518,0.0
2,3, 1, 3, 0,13, 0.00,60.00,Thursday
16,1712339.9184327582
469,3541726.7237188597
518,0.0
2,3, 1, 3, 0,14, 0.00,60.00,Thursday
16,4441979.975429584
469,2973762.3484317996
518,0.0
2,3, 1, 3, 0,15, 0.00,60.00,Thursday
16,1712339.9184327582
469,3469811.08493865
518,0.0
2,3, 1, 3, 0,16, 0.00,60.00,Thursday
16,4442233.804566458
469,6669686.002267355
518,0.0
2,3, 1, 3, 0,17, 0.00,60.00,Thursday
16,1712339.9184327582
469,10254162.632103972
518,0.0
2,3, 1, 3, 0,18, 0.00,60.00,Thursday
16,4645411.56122628
469,11792223.365997167
518,0.0
2,3, 1, 3, 0,19, 0.00,60.00,Thursday
16,4645935.588282272
469,12669685.327091169
518,0.0
2,3, 1, 3, 0,20, 0.00,60.00,Thursday
16,1712339.9184327582
469,2571893.7927011317
518,0.0
2,3, 1, 3, 0,21, 0.00,60.00,Thursday
16,4645917.785933143
469,4833754.651844455
518,0.0
2,3, 1, 3, 0,22, 0.00,60.00,Thursday
16,4614541.8760147765
469,5334040.4370142305
518,0.0
2,3, 1, 3, 0,23, 0.00,60.00,Thursday
16,4614813.465227771
469,4373194.644912223
518,0.0
2,3, 1, 3, 0,24, 0.00,60.00,Thursday
16,1712339.9184327582
469,4489048.319442438
518,0.0
2,4, 1, 4, 0, 1, 0.00,60.00,Friday
16,4367002.31657711
469,5202464.049650457
518,0.0
2,4, 1, 4, 0, 2, 0.00,60.00,Friday
16,1712339.9184327582
469,5837675.981584191
518,0.0
2,4, 1, 4, 0, 3, 0.00,60.00,Friday
16,1712339.9184327582
469,6139411.067399979
518,0.0
2,4, 1, 4, 0, 4, 0.00,60.00,Friday
16,2475966.2969400976
469,6433022.256343327
518,0.0
2,4, 1, 4, 0, 5, 0.00,60.00,Friday
16,3602931.343934438
469,6862303.221886905
518,0.0
2,4, 1, 4, 0, 6, 0.00,60.00,Friday
16,1712339.9184327582
469,7238055.9667606335
518,0.0
2,4, 1, 4, 0, 7, 0.00,60.00,Friday
16,4614962.057204622
469,9101786.004695687
518,0.0
2,4, 1, 4, 0, 8, 0.00,60.00,Friday
16,2990560.994687246
469,20268476.13661443
518,0.0
2,4, 1, 4, 0, 9, 0.00,60.00,Friday
16,3876615.669880735
469,18677926.732665304
518,0.0
2,4, 1, 4, 0,10, 0.00,60.00,Friday
16,4334838.874029884
469,14082223.521853482
518,0.0
2,4, 1, 4, 0,11, 0.00,60.00,Friday
16,4442216.309268551
469,10140351.069194201
518,0.0
2,4, 1, 4, 0,12, 0.00,60.00,Friday
16,1712339.9184327582
469,6996600.308757169
518,0.0
2,4, 1, 4, 0,13, 0.00,60.00,Friday
16,4441700.423362944
469,5021497.7269745
518,0.0
2,4, 1, 4, 0,14, 0.00,60.00,Friday
16,1712339.9184327582
469,4216291.542574419
518,0.0
2,4, 1, 4, 0,15, 0.00,60.00,Friday
16,4441840.87326725
469,4859789.210885942
518,0.0
2,4, 1, 4, 0,16, 0.00,60.00,Friday
16,1712339.9184327582
469,8202518.436130092
518,0.0
2,4, 1, 4, 0,17, 0.00,60.00,Friday
16,1712339.9184327582
469,11845328.735149872
518,0.0
2,4, 1, 4, 0,18, 0.00,60.00,Friday
16,4645962.030968612
469,13424235.59627679
518,0.0
2,4, 1, 4, 0,19, 0.00,60.00,Friday
16,4645871.252789511
469,14284742.670692448
518,0.0
2,4, 1, 4, 0,20, 0.00,60.00,Friday
16,4645478.034140213
469,4305018.323637919
518,0.0
2,4, 1, 4, 0,21, 0.00,60.00,Friday
16,3389438.758071877
469,7193829.113443908
518,0.0
2,4, 1, 4, 0,22, 0.00,60.00,Friday
16,2954715.9813878806
469,7966985.886402415
518,0.0
2,4, 1, 4, 0,23, 0.00,60.00,Friday
16,4615005.144791855
469,7083122.88796171
518,0.0
2,4, 1, 4, 0,24, 0.00,60.00,Friday
16,4614316.489436977
469,7557404.293340044
518,0.0
2,5, 1, 5, 0, 1, 0.00,60.00,Saturday
16,1712339.9184327582
469,7705790.712427763
518,0.0
2,5, 1, 5, 0, 2, 0.00,60.00,Saturday
16,1712339.9184327582
469,7921477.668357943
518,0.0
2,5, 1, 5, 0, 3, 0.00,60.00,Saturday
16,2171545.1112416135
469,8293821.226052254
518,0.0
2,5, 1, 5, 0, 4, 0.00,60.00,Saturday
16,3907500.4848750317
469,8651006.223306607
518,0.0
2,5, 1, 5, 0, 5, 0.00,60.00,Saturday
16,1712339.9184327582
469,8965609.074206214
518,0.0
2,5, 1, 5, 0, 6, 0.00,60.00,Saturday
16,1712339.9184327582
469,9295698.019612923
518,0.0
2,5, 1, 5, 0, 7, 0.00,60.00,Saturday
16,4614548.436957176
469,11355629.525492452
518,0.0
2,5, 1, 5, 0, 8, 0.00,60.00,Saturday
16,4614803.591701284
469,23105214.701414324
518,0.0
2,5, 1, 5, 0, 9, 0.00,60.00,Saturday
16,4780881.802001874
469,21421007.573113065
518,0.0
2,5, 1, 5, 0,10, 0.00,60.00,Saturday
16,4781544.231337788
469,16874771.16346562
518,0.0
2,5, 1, 5, 0,11, 0.00,60.00,Saturday
16,1712339.9184327582
469,12877684.909584107
518,0.0
2,5, 1, 5, 0,12, 0.00,60.00,Saturday
16,1863000.752233353
469,9710471.628225006
518,0.0
2,5, 1, 5, 0,13, 0.00,60.00,Saturday
16,4291493.233598638
469,7764610.915385052
518,0.0
2,5, 1, 5, 0,14, 0.00,60.00,Saturday
16,1712339.9184327582
469,6947030.484247763
518,0.0
2,5, 1, 5, 0,15, 0.00,60.00,Saturday
16,4442219.730818914
469,7710473.879137566
518,0.0
2,5, 1, 5, 0,16, 0.00,60.00,Saturday
16,1712339.9184327582
469,10966495.767707359
518,0.0
2,5, 1, 5, 0,17, 0.00,60.00,Saturday
16,4441717.629888257
469,14161710.070146732
518,0.0
2,5, 1, 5, 0,18, 0.00,60.00,Saturday
16,1712339.9184327582
469,15455256.734456092
518,0.0
2,5, 1, 5, 0,19, 0.00,60.00,Saturday
16,4645968.152986782
469,15998452.674522644
518,0.0
2,5, 1, 5, 0,20, 0.00,60.00,Saturday
16,4645117.300803858
469,4991980.352388141
518,0.0
2,5, 1, 5, 0,21, 0.00,60.00,Saturday
16,4645507.129424568
469,7442194.534094413
518,0.0
2,5, 1, 5, 0,22, 0.00,60.00,Saturday
16,2319914.996029213
469,7954852.333323013
518,0.0
2,5, 1, 5, 0,23, 0.00,60.00,Saturday
16,4007006.7430076534
469,6781064.79864113
518,0.0
2,5, 1, 5, 0,24, 0.00,60.00,Saturday
16,4614758.572666309
469,7106535.541404544
518,0.0
2,6, 1, 6, 0, 1, 0.00,60.00,Sunday
16,1712339.9184327582
469,7374464.100997821
518,0.0
2,6, 1, 6, 0, 2, 0.00,60.00,Sunday
16,1712339.9184327582
469,7634614.568181257
518,0.0
2,6, 1, 6, 0, 3, 0.00,60.00,Sunday
16,4367000.149312338
469,7851732.325381352
518,0.0
2,6, 1, 6, 0, 4, 0.00,60.00,Sunday
16,1712339.9184327582
469,8021832.212590739
518,0.0
2,6, 1, 6, 0, 5, 0.00,60.00,Sunday
16,1712339.9184327582
469,8185881.057444191
518,0.0
2,6, 1, 6, 0, 6, 0.00,60.00,Sunday
16,4366582.018648388
469,8313048.393449403
518,0.0
2,6, 1, 6, 0, 7, 0.00,60.00,Sunday
16,1712339.9184327582
469,10082168.71489679
518,0.0
2,6, 1, 6, 0, 8, 0.00,60.00,Sunday
16,4614185.063336637
469,21614995.816025876
518,0.0
2,6, 1, 6, 0, 9, 0.00,60.00,Sunday
16,4780752.066152384
469,20160494.107303552
518,0.0
2,6, 1, 6, 0,10, 0.00,60.00,Sunday
16,4780830.240776397
469,18678561.958272666
518,0.0
2,6, 1, 6, 0,11, 0.00,60.00,Sunday
16,1712339.9184327582
469,17411532.398511067
518,0.0
2,6, 1, 6, 0,12, 0.00,60.00,Sunday
16,4441914.088503348
469,16166392.0812242
518,0.0
2,6, 1, 6, 0,13, 0.00,60.00,Sunday
16,1712339.9184327582
469,15624584.643436886
518,0.0
2,6, 1, 6, 0,14, 0.00,60.00,Sunday
16,4442240.056967772
469,15509371.17417811
518,0.0
2,6, 1, 6, 0,15, 0.00,60.00,Sunday
16,1712339.9184327582
469,15210305.173710164
518,0.0
2,6, 1, 6, 0,16, 0.00,60.00,Sunday
16,3962837.81952059
469,15517579.901639484
518,0.0
2,6, 1, 6, 0,17, 0.00,60.00,Sunday
16,2191365.352347564
469,15964325.20209196
518,0.0
2,6, 1, 6, 0,18, 0.00,60.00,Sunday
16,4645398.786022149
469,15928406.319278782
518,0.0
2,6, 1, 6, 0,19, 0.00,60.00,Sunday
16,3230723.199392969
469,15736910.19877129
518,0.0
2,6, 1, 6, 0,20, 0.00,60.00,Sunday
16,3126637.3652548892
469,4255565.39957251
518,0.0
2,6, 1, 6, 0,21, 0.00,60.00,Sunday
16,4645428.592968121
469,6536526.71654202
518,0.0
2,6, 1, 6, 0,22, 0.00,60.00,Sunday
16,4614989.441010842
469,7032741.785290256
518,0.0
2,6, 1, 6, 0,23, 0.00,60.00,Sunday
16,3233614.625871671
469,5903665.569688036
518,0.0
2,6, 1, 6, 0,24, 0.00,60.00,Sunday
16,3093036.466966592
469,6186748.091531582
518,0.0
2,7, 1, 7, 0, 1, 0.00,60.00,Monday
16,4366995.531256441
469,6420580.188479193
518,0.0
2,7, 1, 7, 0, 2, 0.00,60.00,Monday
16,1712339.9184327582
469,6811327.178780209
518,0.0
2,7, 1, 7, 0, 3, 0.00,60.00,Monday
16,1712339.9184327582
469,7440807.110374181
518,0.0
2,7, 1, 7, 0, 4, 0.00,60.00,Monday
16,1712339.9184327582
469,8154013.088665975
518,0.0
2,7, 1, 7, 0, 5, 0.00,60.00,Monday
16,4366641.521439704
469,8998777.263328478
518,0.0
2,7, 1, 7, 0, 6, 0.00,60.00,Monday
16,1712339.9184327582
469,9698777.58796109
518,0.0
2,7, 1, 7, 0, 7, 0.00,60.00,Monday
16,4614713.658926161
469,12645144.461420588
518,0.0
2,7, 1, 7, 0, 8, 0.00,60.00,Monday
16,1712339.9184327582
469,24584324.99732563
518,0.0
2,7, 1, 7, 0, 9, 0.00,60.00,Monday
16,4781295.29387263
469,22409874.278448023
518,0.0
2,7, 1, 7, 0,10, 0.00,60.00,Monday
16,4780785.589925545
469,18652492.270076398
518,0.0
2,7, 1, 7, 0,11, 0.00,60.00,Monday
16,4441728.3516202215
469,15383033.600344937
518,0.0
2,7, 1, 7, 0,12, 0.00,60.00,Monday
16,1712339.9184327582
469,12361087.074304827
518,0.0
2,7, 1, 7, 0,13, 0.00,60.00,Monday
16,4442263.758026376
469,10259968.780952659
518,0.0
2,7, 1, 7, 0,14, 0.00,60.00,Monday
16,1712339.9184327582
469,8949369.599076867
518,0.0
2,7, 1, 7, 0,15, 0.00,60.00,Monday
16,1712339.9184327582
469,9148104.194029942
518,0.0
2,7, 1, 7, 0,16, 0.00,60.00,Monday
16,4442126.9446526505
469,11447851.37100781
518,0.0
2,7, 1, 7, 0,17, 0.00,60.00,Monday
16,1712339.9184327582
469,14241435.159193676
518,0.0
2,7, 1, 7, 0,18, 0.00,60.00,Monday
16,4645533.849371923
469,15240144.226463826
518,0.0
2,7, 1, 7, 0,19, 0.00,60.00,Monday
16,4645981.038018672
469,15583173.229307013
518,0.0
2,7, 1, 7, 0,20, 0.00,60.00,Monday
16,4645890.17936722
469,4543783.895596128
518,0.0
2,7, 1, 7, 0,21, 0.00,60.00,Monday
16,1712339.9184327582
469,6826090.423985995
518,0.0
2,7, 1, 7, 0,22, 0.00,60.00,Monday
16,4614581.183090177
469,7271176.320833917
518,0.0
2,7, 1, 7, 0,23, 0.00,60.00,Monday
16,4614759.1217925735
469,6146886.660122081
518,0.0
2,7, 1, 7, 0,24, 0.00,60.00,Monday
16,4167180.550352825
469,6476154.8376438
518,0.0
2,8, 1, 8, 0, 1, 0.00,60.00,Tuesday
16,2120801.2349404115
469,6787960.32054072
518,0.0
2,8, 1, 8, 0, 2, 0.00,60.00,Tuesday
16,1712339.9184327582
469,7044917.91905134
518,0.0
2,8, 1, 8, 0, 3, 0.00,60.00,Tuesday
16,1712339.9184327582
469,7272545.678418323
518,0.0
2,8, 1, 8, 0, 4, 0.00,60.00,Tuesday
16,4367039.310866238
469,7539177.602248469
518,0.0
2,8, 1, 8, 0, 5, 0.00,60.00,Tuesday
16,1712339.9184327582
469,7714479.19657783
518,0.0
2,8, 1, 8, 0, 6, 0.00,60.00,Tuesday
16,1712339.9184327582
469,7859513.892239049
518,0.0
2,8, 1, 8, 0, 7, 0.00,60.00,Tuesday
16,4614331.734548405
469,9453695.446377886
518,0.0
2,8, 1, 8, 0, 8, 0.00,60.00,Tuesday
16,4615019.289446057
469,20851333.372660533
518,0.0
2,8, 1, 8, 0, 9, 0.00,60.00,Tuesday
16,4598546.371362532
469,19116034.616344236
518,0.0
2,8, 1, 8, 0,10, 0.00,60.00,Tuesday
16,3877769.9182583885
469,17612801.58852847
518,0.0
2,8, 1, 8, 0,11, 0.00,60.00,Tuesday
16,2676230.2352437917
469,16625624.297889484
518,0.0
2,8, 1, 8, 0,12, 0.00,60.00,Tuesday
16,1712339.9184327582
469,15925132.08986514
518,0.0
2,8, 1, 8, 0,13, 0.00,60.00,Tuesday
16,4441888.535475679
469,15483226.680461586
518,0.0
2,8, 1, 8, 0,14, 0.00,60.00,Tuesday
16,1712339.9184327582
469,15328402.429378709
518,0.0
2,8, 1, 8, 0,15, 0.00,60.00,Tuesday
16,4442242.681140907
469,15104546.684338402
518,0.0
2,8, 1, 8, 0,16, 0.00,60.00,Tuesday
16,1712339.9184327582
469,15020163.406550284
518,0.0
2,8, 1, 8, 0,17, 0.00,60.00,Tuesday
16,4006696.681901401
469,15061399.699834704
518,0.0
2,8, 1, 8, 0,18, 0.00,60.00,Tuesday
16,2180672.096561604
469,14880910.356294248
518,0.0
2,8, 1, 8, 0,19, 0.00,60.00,Tuesday
16,4645248.070098441
469,14614777.045627333
518,0.0
2,8, 1, 8, 0,20, 0.00,60.00,Tuesday
16,4645416.941817735
469,3022455.505960715
518,0.0
2,8, 1, 8, 0,21, 0.00,60.00,Tuesday
16,4645787.897511819
469,4698723.052692264
518,0.0
2,8, 1, 8, 0,22, 0.00,60.00,Tuesday
16,1712339.9184327582
469,4782664.863779902
518,0.0
2,8, 1, 8, 0,23, 0.00,60.00,Tuesday
16,4614565.386291354
469,4077609.495714263
518,0.0
2,8, 1, 8, 0,24, 0.00,60.00,Tuesday
16,4614780.080368139
469,4361385.888450278
518,0.0
2,9, 1, 9, 0, 1, 0.00,60.00,Wednesday
16,1712339.9184327582
469,4594015.863642608
518,0.0
2,9, 1, 9, 0, 2, 0.00,60.00,Wednesday
16,1712339.9184327582
469,5069754.4136266485
518,0.0
2,9, 1, 9, 0, 3, 0.00,60.00,Wednesday
16,4366793.223050598
469,5622791.401861821
518,0.0
2,9, 1, 9, 0, 4, 0.00,60.00,Wednesday
16,1712339.9184327582
469,5842265.953946988
518,0.0
2,9, 1, 9, 0, 5, 0.00,60.00,Wednesday
16,1712339.9184327582
469,5705698.321647063
518,0.0
2,9, 1, 9, 0, 6, 0.00,60.00,Wednesday
16,1712339.9184327582
469,5399204.304725176
518,0.0
2,9, 1, 9, 0, 7, 0.00,60.00,Wednesday
16,4614977.578019963
469,6211352.985096493
518,0.0
2,9, 1, 9, 0, 8, 0.00,60.00,Wednesday
16,4614315.339249006
469,17469675.63597735
518,0.0
2,9, 1, 9, 0, 9, 0.00,60.00,Wednesday
16,4781295.348790826
469,16063167.689725537
518,0.0
2,9, 1, 9, 0,10, 0.00,60.00,Wednesday
16,4780785.609463004
469,13546362.634259805
518,0.0
2,9, 1, 9, 0,11, 0.00,60.00,Wednesday
16,1712339.9184327582
469,11790947.570896497
518,0.0
2,9, 1, 9, 0,12, 0.00,60.00,Wednesday
16,4441678.338785187
469,9868777.928713564
518,0.0
2,9, 1, 9, 0,13, 0.00,60.00,Wednesday
16,1712339.9184327582
469,8616751.241102172
518,0.0
2,9, 1, 9, 0,14, 0.00,60.00,Wednesday
16,1712339.9184327582
469,8992875.041656978
518,0.0
2,9, 1, 9, 0,15, 0.00,60.00,Wednesday
16,4442274.291528721
469,10165493.656967897
518,0.0
2,9, 1, 9, 0,16, 0.00,60.00,Wednesday
16,1712339.9184327582
469,11116517.608906843
518,0.0
2,9, 1, 9, 0,17, 0.00,60.00,Wednesday
16,4442200.649816338
469,11654991.908135839
518,0.0
2,9, 1, 9, 0,18, 0.00,60.00,Wednesday
16,4113046.6918327464
469,12472960.425302558
518,0.0
2,9, 1, 9, 0,19, 0.00,60.00,Wednesday
16,2244760.6395228785
469,14599200.5614838
518,0.0
2,9, 1, 9, 0,20, 0.00,60.00,Wednesday
16,4645001.172645158
469,1665073.0047765155
518,0.0
2,9, 1, 9, 0,21, 0.00,60.00,Wednesday
16,4645366.451875821
469,2908110.7770045074
518,0.0
2,9, 1, 9, 0,22, 0.00,60.00,Wednesday
16,4614971.129102865
469,2807751.6107610688
518,0.0
2,9, 1, 9, 0,23, 0.00,60.00,Wednesday
16,1712339.9184327582
469,2257163.5809183703
518,0.0
2,9, 1, 9, 0,24, 0.00,60.00,Wednesday
16,4614320.50282622
469,2402799.192771354
518,0.0
2,10, 1,10, 0, 1, 0.00,60.00,Thursday
16,1712339.9184327582
469,2943853.9344816394
518,0.0
2,10, 1,10, 0, 2, 0.00,60.00,Thursday
16,4366994.142409368
469,3048843.9173982693
518,0.0
2,10, 1,10, 0, 3, 0.00,60.00,Thursday
16,1712339.9184327582
469,3793377.004499099
518,0.0
2,10, 1,10, 0, 4, 0.00,60.00,Thursday
16,1712339.9184327582
469,4302516.8861038005
518,0.0
2,10, 1,10, 0, 5, 0.00,60.00,Thursday
16,1712339.9184327582
469,4485038.894704574
518,0.0
2,10, 1,10, 0, 6, 0.00,60.00,Thursday
16,4366661.430953649
469,4601641.463868896
518,0.0
2,10, 1,10, 0, 7, 0.00,60.00,Thursday
16,1941028.7678080574
469,5526832.667292657
518,0.0
2,10, 1,10, 0, 8, 0.00,60.00,Thursday
16,4385268.6149834525
469,16621189.708404617
518,0.0
2,10, 1,10, 0, 9, 0.00,60.00,Thursday
16,4781521.772977737
469,15675095.734258663
518,0.0
2,10, 1,10, 0,10, 0.00,60.00,Thursday
16,4781375.0749802
469,12677461.002510872
518,0.0
2,10, 1,10, 0,11, 0.00,60.00,Thursday
16,3141121.9599829754
469,10352422.62612174
518,0.0
2,10, 1,10, 0,12, 0.00,60.00,Thursday
16,3012856.434892649
469,9066360.091740388
518,0.0
2,10, 1,10, 0,13, 0.00,60.00,Thursday
16,1712339.9184327582
469,8294428.0845220275
518,0.0
2,10, 1,10, 0,14, 0.00,60.00,Thursday
16,4442116.566245252
469,8328751.142496305
518,0.0
2,10, 1,10, 0,15, 0.00,60.00,Thursday
16,1712339.9184327582
469,9315700.285339287
518,0.0
2,10, 1,10, 0,16, 0.00,60.00,Thursday
16,4442222.532379038
469,10643497.482609896
518,0.0
2,10, 1,10, 0,17, 0.00,60.00,Thursday
16,1712339.9184327582
469,11431051.809558121
518,0.0
2,10, 1,10, 0,18, 0.00,60.00,Thursday
16,4645460.265392126
469,12081627.438838713
518,0.0
2,10, 1,10, 0,19, 0.00,60.00,Thursday
16,4645996.748250549
469,12320864.90587811
518,0.0
2,10, 1,10, 0,20, 0.00,60.00,Thursday
16,1712339.9184327582
469,1825647.614348458
518,0.0
2,10, 1,10, 0,21, 0.00,60.00,Thursday
16,4645905.871357249
469,3738596.8919666708
518,0.0
2,10, 1,10, 0,22, 0.00,60.00,Thursday
16,4614488.736597448
469,4172495.601608935
518,0.0
2,10, 1,10, 0,23, 0.00,60.00,Thursday
16,4614900.765725341
469,3494342.0246402314
518,0.0
2,10, 1,10, 0,24, 0.00,60.00,Thursday
16,1712339.9184327582
469,3510566.615415084
518,0.0
2,11, 1,11, 0, 1, 0.00,60.00,Friday
16,4366991.284209222
469,3529264.1935101287
518,0.0
2,11, 1,11, 0, 2, 0.00,60.00,Friday
16,1712339.9184327582
469,3767740.9059527842
518,0.0
2,11, 1,11, 0, 3, 0.00,60.00,Friday
16,1712339.9184327582
469,4114988.4942785623
518,0.0
2,11, 1,11, 0, 4, 0.00,60.00,Friday
16,2171793.3085321886
469,4548630.217423005
518,0.0
2,11, 1,11, 0, 5, 0.00,60.00,Friday
16,3907252.1427948736
469,4962184.775613104
518,0.0
2,11, 1,11, 0, 6, 0.00,60.00,Friday
16,1712339.9184327582
469,5157534.590272556
518,0.0
2,11, 1,11, 0, 7, 0.00,60.00,Friday
16,4614950.201252596
469,6128625.655120709
518,0.0
2,11, 1,11, 0, 8, 0.00,60.00,Friday
16,2885543.224559712
469,16994481.364539154
518,0.0
2,11, 1,11, 0, 9, 0.00,60.00,Friday
16,3876601.746300799
469,15948385.215987919
518,0.0
2,11, 1,11, 0,10, 0.00,60.00,Friday
16,4445978.115338873
469,12080836.398219146
518,0.0
2,11, 1,11, 0,11, 0.00,60.00,Friday
16,4442199.795162869
469,8623778.940697838
518,0.0
2,11, 1,11, 0,12, 0.00,60.00,Friday
16,1712339.9184327582
469,6352578.923678492
518,0.0
2,11, 1,11, 0,13, 0.00,60.00,Friday
16,4441646.966202615
469,4856215.652753024
518,0.0
2,11, 1,11, 0,14, 0.00,60.00,Friday
16,1712339.9184327582
469,4642789.997186026
518,0.0
2,11, 1,11, 0,15, 0.00,60.00,Friday
16,4442006.503374464
469,5202513.242857549
518,0.0
2,11, 1,11, 0,16, 0.00,60.00,Friday
16,1712339.9184327582
469,7660144.756253114
518,0.0
2,11, 1,11, 0,17, 0.00,60.00,Friday
16,1712339.9184327582
469,10429850.116331808
518,0.0
2,11, 1,11, 0,18, 0.00,60.00,Friday
16,4645944.614314825
469,11333570.133319383
518,0.0
2,11, 1,11, 0,19, 0.00,60.00,Friday
16,4645853.822706061
469,11736880.03664776
518,0.0
2,11, 1,11, 0,20, 0.00,60.00,Friday
16,4645480.567372836
469,1733300.2552702785
518,0.0
2,11, 1,11, 0,21, 0.00,60.00,Friday
16,3246747.455055585
469,3741852.2327107843
518,0.0
2,11, 1,11, 0,22, 0.00,60.00,Friday
16,3095893.7566758813
469,4218675.077464977
518,0.0
2,11, 1,11, 0,23, 0.00,60.00,Friday
16,4614989.228773146
469,3801870.4945103526
518,0.0
2,11, 1,11, 0,24, 0.00,60.00,Friday
16,4614311.186786011
469,4023494.4526171293
518,0.0
2,12, 1,12, 0, 1, 0.00,60.00,Saturday
16,1712339.9184327582
469,4055452.592614237
518,0.0
2,12, 1,12, 0, 2, 0.00,60.00,Saturday
16,1712339.9184327582
469,4126549.664630094
518,0.0
2,12, 1,12, 0, 3, 0.00,60.00,Saturday
16,1764294.9987271463
469,4163380.484691196
518,0.0
2,12, 1,12, 0, 4, 0.00,60.00,Saturday
16,4315042.687568716
469,4118160.789679909
518,0.0
2,12, 1,12, 0, 5, 0.00,60.00,Saturday
16,1712339.9184327582
469,3936908.2929841615
518,0.0
2,12, 1,12, 0, 6, 0.00,60.00,Saturday
16,1712339.9184327582
469,3854439.530242117
518,0.0
2,12, 1,12, 0, 7, 0.00,60.00,Saturday
16,4614631.845776191
469,4843850.8141165655
518,0.0
2,12, 1,12, 0, 8, 0.00,60.00,Saturday
16,4614698.960226139
469,15204453.797756538
518,0.0
2,12, 1,12, 0, 9, 0.00,60.00,Saturday
16,4780930.747196202
469,14290846.940418918
518,0.0
2,12, 1,12, 0,10, 0.00,60.00,Saturday
16,4781538.835500931
469,10551000.297109954
518,0.0
2,12, 1,12, 0,11, 0.00,60.00,Saturday
16,1712339.9184327582
469,7905841.014585485
518,0.0
2,12, 1,12, 0,12, 0.00,60.00,Saturday
16,1712339.9184327582
469,5727192.951382706
518,0.0
2,12, 1,12, 0,13, 0.00,60.00,Saturday
16,4442278.304034164
469,4083931.209527296
518,0.0
2,12, 1,12, 0,14, 0.00,60.00,Saturday
16,1712339.9184327582
469,3601441.6792636802
518,0.0
2,12, 1,12, 0,15, 0.00,60.00,Saturday
16,4442204.6653874405
469,3719425.45170565
518,0.0
2,12, 1,12, 0,16, 0.00,60.00,Saturday
16,1712339.9184327582
469,5855896.2191026835
518,0.0
2,12, 1,12, 0,17, 0.00,60.00,Saturday
16,4441657.6354323905
469,8793205.123933915
518,0.0
2,12, 1,12, 0,18, 0.00,60.00,Saturday
16,1712339.9184327582
469,10152425.821634969
518,0.0
2,12, 1,12, 0,19, 0.00,60.00,Saturday
16,4645952.215530566
469,10786422.893979467
518,0.0
2,12, 1,12, 0,20, 0.00,60.00,Saturday
16,4645017.067234154
469,1175546.8500798394
518,0.0
2,12, 1,12, 0,21, 0.00,60.00,Saturday
16,4645436.423422335
469,3033217.3100016513
518,0.0
2,12, 1,12, 0,22, 0.00,60.00,Saturday
16,2179452.2122817677
469,3631825.768285157
518,0.0
2,12, 1,12, 0,23, 0.00,60.00,Saturday
16,4147558.231027253
469,3067209.988605579
518,0.0
2,12, 1,12, 0,24, 0.00,60.00,Saturday
16,4614659.084473736
469,3508228.1590071116
518,0.0
2,13, 1,13, 0, 1, 0.00,60.00,Sunday
16,1712339.9184327582
469,3812135.782779831
518,0.0
2,13, 1,13, 0, 2, 0.00,60.00,Sunday
16,1712339.9184327582
469,3982621.466725326
518,0.0
2,13, 1,13, 0, 3, 0.00,60.00,Sunday
16,4366973.189825769
469,3952830.9794936525
518,0.0
2,13, 1,13, 0, 4, 0.00,60.00,Sunday
16,1712339.9184327582
469,4136918.0705964933
518,0.0
2,13, 1,13, 0, 5, 0.00,60.00,Sunday
16,1712339.9184327582
469,4441689.9811462965
518,0.0
2,13, 1,13, 0, 6, 0.00,60.00,Sunday
16,4366808.647008947
469,4669005.99544622
518,0.0
2,13, 1,13, 0, 7, 0.00,60.00,Sunday
16,1712339.9184327582
469,5883197.578553809
518,0.0
2,13, 1,13, 0, 8, 0.00,60.00,Sunday
16,4614236.084461366
469,15821763.73869542
518,0.0
2,13, 1,13, 0, 9, 0.00,60.00,Sunday
16,4780735.293741791
469,14879688.285429299
518,0.0
2,13, 1,13, 0,10, 0.00,60.00,Sunday
16,4780871.311952009
469,12210277.498097219
518,0.0
2,13, 1,13, 0,11, 0.00,60.00,Sunday
16,1712339.9184327582
469,9168947.813252192
518,0.0
2,13, 1,13, 0,12, 0.00,60.00,Sunday
16,4442086.185507715
469,7148312.729110941
518,0.0
2,13, 1,13, 0,13, 0.00,60.00,Sunday
16,1712339.9184327582
469,6721083.516372222
518,0.0
2,13, 1,13, 0,14, 0.00,60.00,Sunday
16,4442224.883555564
469,7119580.263475065
518,0.0
2,13, 1,13, 0,15, 0.00,60.00,Sunday
16,1712339.9184327582
469,8116758.7385848025
518,0.0
2,13, 1,13, 0,16, 0.00,60.00,Sunday
16,3709292.175650444
469,9503272.200895438
518,0.0
2,13, 1,13, 0,17, 0.00,60.00,Sunday
16,2444795.2572847414
469,10375400.28482821
518,0.0
2,13, 1,13, 0,18, 0.00,60.00,Sunday
16,4645345.111178422
469,10732736.88360292
518,0.0
2,13, 1,13, 0,19, 0.00,60.00,Sunday
16,3099120.3461434403
469,10918611.659220044
518,0.0
2,13, 1,13, 0,20, 0.00,60.00,Sunday
16,3258219.9165230207
469,1076031.2647216227
518,0.0
2,13, 1,13, 0,21, 0.00,60.00,Sunday
16,4645498.826348377
469,2723925.5373577042
518,0.0
2,13, 1,13, 0,22, 0.00,60.00,Sunday
16,4614973.470316151
469,3205026.024078667
518,0.0
2,13, 1,13, 0,23, 0.00,60.00,Sunday
16,3092073.7257694323
469,2610386.5725670774
518,0.0
2,13, 1,13, 0,24, 0.00,60.00,Sunday
16,3234584.5718264105
469,2805381.921798308
518,0.0
2,14, 1,14, 0, 1, 0.00,60.00,Monday
16,4220053.997803246
469,2945772.5035662865
518,0.0
2,14, 1,14, 0, 2, 0.00,60.00,Monday
16,1859155.52087694
469,3073621.644318922
518,0.0
2,14, 1,14, 0, 3, 0.00,60.00,Monday
16,1712339.9184327582
469,3202588.873579479
518,0.0
2,14, 1,14, 0, 4, 0.00,60.00,Monday
16,1712339.9184327582
469,3347134.353839045
518,0.0
2,14, 1,14, 0, 5, 0.00,60.00,Monday
16,4366905.126136874
469,3450818.373511448
518,0.0
2,14, 1,14, 0, 6, 0.00,60.00,Monday
16,1712339.9184327582
469,3509371.706471539
518,0.0
2,14, 1,14, 0, 7, 0.00,60.00,Monday
16,4614821.785228265
469,4412038.925158886
518,0.0
2,14, 1,14, 0, 8, 0.00,60.00,Monday
16,1712339.9184327582
469,15905004.61339721
518,0.0
2,14, 1,14, 0, 9, 0.00,60.00,Monday
16,4781211.490157047
469,13733384.647533065
518,0.0
2,14, 1,14, 0,10, 0.00,60.00,Monday
16,4780759.696098526
469,12784847.774578376
518,0.0
2,14, 1,14, 0,11, 0.00,60.00,Monday
16,4441836.8184009325
469,12066738.082434818
518,0.0
2,14, 1,14, 0,12, 0.00,60.00,Monday
16,1712339.9184327582
469,11555282.578559536
518,0.0
2,14, 1,14, 0,13, 0.00,60.00,Monday
16,4442248.439191252
469,11112709.694135197
518,0.0
2,14, 1,14, 0,14, 0.00,60.00,Monday
16,1712339.9184327582
469,10050823.085470453
518,0.0
2,14, 1,14, 0,15, 0.00,60.00,Monday
16,1712339.9184327582
469,8729762.746498127
518,0.0
2,14, 1,14, 0,16, 0.00,60.00,Monday
16,4441944.954240242
469,8941885.69926222
518,0.0
2,14, 1,14, 0,17, 0.00,60.00,Monday
16,1712339.9184327582
469,10124654.729879182
518,0.0
2,14, 1,14, 0,18, 0.00,60.00,Monday
16,4645620.624054526
469,10463026.080081562
518,0.0
2,14, 1,14, 0,19, 0.00,60.00,Monday
16,4645964.859623332