Program Version,EnergyPlus, Version 23.2.0-7636e6b3e9, YMD=2025.01.28 12:56
1,5,Environment Title[],Latitude[deg],Longitude[deg],Time Zone[],Elevation[m]
2,8,Day of Simulation[],Month[],Day of Month[],DST Indicator[1=yes 0=no],Hour[],StartMinute[],EndMinute[],DayType
3,5,Cumulative Day of Simulation[],Month[],Day of Month[],DST Indicator[1=yes 0=no],DayType  ! When Daily Report Variables Requested
4,2,Cumulative Days of Simulation[],Month[]  ! When Monthly Report Variables Requested
5,1,Cumulative Days of Simulation[] ! When Run Period Report Variables Requested
6,1,Calendar Year of Simulation[] ! When Annual Report Variables Requested
7,7,Environment,Site Outdoor Air Drybulb Temperature [C] !Daily [Value,Min,Hour,Minute,Max,Hour,Minute]
8,7,Environment,Site Outdoor Air Dewpoint Temperature [C] !Daily [Value,Min,Hour,Minute,Max,Hour,Minute]
9,7,Environment,Site Outdoor Air Wetbulb Temperature [C] !Daily [Value,Min,Hour,Minute,Max,Hour,Minute]
10,7,Environment,Site Diffuse Solar Radiation Rate per Area [W/m2] !Daily [Value,Min,Hour,Minute,Max,Hour,Minute]
11,7,Environment,Site Direct Solar Radiation Rate per Area [W/m2] !Daily [Value,Min,Hour,Minute,Max,Hour,Minute]
12,7,Environment,Site Solar Azimuth Angle [deg] !Daily [Value,Min,Hour,Minute,Max,Hour,Minute]
13,7,Environment,Site Solar Altitude Angle [deg] !Daily [Value,Min,Hour,Minute,Max,Hour,Minute]
1790,7,MYDHW_1_WATERHEATER,Water Heater Heating Energy [J] !Daily [Value,Min,Hour,Minute,Max,Hour,Minute]
804,1,Heating:EnergyTransfer [J] !Hourly
853,1,Cooling:EnergyTransfer [J] !Hourly
16,1,Electricity:Facility [J] !Hourly
End of Data Dictionary
1,RUN PERIOD 1,  52.46,   5.52,   1.00,  -3.90
2,1, 1, 1, 0, 1, 0.00,60.00,Tuesday
16,4566240.878071144
804,5153588.646359991
853,0.0
2,1, 1, 1, 0, 2, 0.00,60.00,Tuesday
16,4566240.878071144
804,5655608.972319094
853,0.0
2,1, 1, 1, 0, 3, 0.00,60.00,Tuesday
16,4566240.878071144
804,6059325.223722936
853,0.0
2,1, 1, 1, 0, 4, 0.00,60.00,Tuesday
16,7220699.114133755
804,6481133.078917874
853,0.0
2,1, 1, 1, 0, 5, 0.00,60.00,Tuesday
16,4566240.878071144
804,6838281.765878847
853,0.0
2,1, 1, 1, 0, 6, 0.00,60.00,Tuesday
16,4566240.878071144
804,7191377.4251033785
853,0.0
2,1, 1, 1, 0, 7, 0.00,60.00,Tuesday
16,7767822.485814117
804,7431537.271764444
853,0.0
2,1, 1, 1, 0, 8, 0.00,60.00,Tuesday
16,7767176.781317075
804,31363774.464821063
853,0.0
2,1, 1, 1, 0, 9, 0.00,60.00,Tuesday
16,11840161.466138631
804,29216863.572083496
853,0.0
2,1, 1, 1, 0,10, 0.00,60.00,Tuesday
16,8202949.712854333
804,26286512.402213853
853,0.0
2,1, 1, 1, 0,11, 0.00,60.00,Tuesday
16,7375653.336047243
804,24131335.75390656
853,0.0
2,1, 1, 1, 0,12, 0.00,60.00,Tuesday
16,4566240.878071144
804,22829120.76424977
853,0.0
2,1, 1, 1, 0,13, 0.00,60.00,Tuesday
16,7375717.21560812
804,22073113.10007078
853,0.0
2,1, 1, 1, 0,14, 0.00,60.00,Tuesday
16,4566240.878071144
804,21605855.48808334
853,0.0
2,1, 1, 1, 0,15, 0.00,60.00,Tuesday
16,7375741.001046775
804,20870703.117059812
853,0.0
2,1, 1, 1, 0,16, 0.00,60.00,Tuesday
16,7375764.749980673
804,21177516.751495514
853,0.0
2,1, 1, 1, 0,17, 0.00,60.00,Tuesday
16,4566240.878071144
804,23007778.158448234
853,0.0
2,1, 1, 1, 0,18, 0.00,60.00,Tuesday
16,7843937.745468854
804,23188806.179546162
853,0.0
2,1, 1, 1, 0,19, 0.00,60.00,Tuesday
16,8780216.360979099
804,22759127.942854095
853,0.0
2,1, 1, 1, 0,20, 0.00,60.00,Tuesday
16,10180993.370058147
804,1593917.165022051
853,0.0
2,1, 1, 1, 0,21, 0.00,60.00,Tuesday
16,7847116.447302543
804,3884126.6520383777
853,0.0
2,1, 1, 1, 0,22, 0.00,60.00,Tuesday
16,7767664.179020266
804,4303534.234369988
853,0.0
2,1, 1, 1, 0,23, 0.00,60.00,Tuesday
16,7767983.997240339
804,4574947.276952198
853,0.0
2,1, 1, 1, 0,24, 0.00,60.00,Tuesday
16,7767211.764882952
804,4709417.791592332
853,0.0
3,1, 1, 1, 0,Tuesday
7,2.891666666666666,1.4,16,60,4.2, 1,60
8,-0.03749999999999998,-2.5,10,60,2.1,24,60
9,1.854739388525906,0.4001495373206364,13,60,3.0998073170807516, 1,60
10,17.307291666666668,0.0, 1,15,86.0,12,30
11,26.854166666666668,0.0, 1,15,152.0,10,30
12,171.9210012821981,1.7466514206994332, 1,45,341.00180793165543,24,60
13,-20.325946072972584,-60.625898049216175, 1,45,14.446671545683287,13,45
1790,51477260.11087915,0.0, 1,15,3273406.562819818, 9,60
2,2, 1, 2, 0, 1, 0.00,60.00,Wednesday
16,4566240.878071144
804,5743569.860931521
853,0.0
2,2, 1, 2, 0, 2, 0.00,60.00,Wednesday
16,7220901.158378188
804,6329308.667909237
853,0.0
2,2, 1, 2, 0, 3, 0.00,60.00,Wednesday
16,4566240.878071144
804,6564384.625671499
853,0.0
2,2, 1, 2, 0, 4, 0.00,60.00,Wednesday
16,4566240.878071144
804,7063408.960330225
853,0.0
2,2, 1, 2, 0, 5, 0.00,60.00,Wednesday
16,4566240.878071144
804,7156342.5391650945
853,0.0
2,2, 1, 2, 0, 6, 0.00,60.00,Wednesday
16,7220482.398349168
804,7227393.149016558
853,0.0
2,2, 1, 2, 0, 7, 0.00,60.00,Wednesday
16,7767469.255170174
804,7370930.786209197
853,0.0
2,2, 1, 2, 0, 8, 0.00,60.00,Wednesday
16,7768061.7221985115
804,30756601.885027368
853,0.0
2,2, 1, 2, 0, 9, 0.00,60.00,Wednesday
16,8203085.864386767
804,27931864.08465201
853,0.0
2,2, 1, 2, 0,10, 0.00,60.00,Wednesday
16,11840043.828458289
804,24815911.55266051
853,0.0
2,2, 1, 2, 0,11, 0.00,60.00,Wednesday
16,4566240.878071144
804,22164050.374292847
853,0.0
2,2, 1, 2, 0,12, 0.00,60.00,Wednesday
16,7375342.481868112
804,20516023.176312696
853,0.0
2,2, 1, 2, 0,13, 0.00,60.00,Wednesday
16,4566240.878071144
804,18931198.895329516
853,0.0
2,2, 1, 2, 0,14, 0.00,60.00,Wednesday
16,7375516.367145715
804,16355386.691291349
853,0.0
2,2, 1, 2, 0,15, 0.00,60.00,Wednesday
16,7375702.071185734
804,13150843.630968805
853,0.0
2,2, 1, 2, 0,16, 0.00,60.00,Wednesday
16,4566240.878071144
804,13905882.646556538
853,0.0
2,2, 1, 2, 0,17, 0.00,60.00,Wednesday
16,7375725.879880657
804,17495444.25715403
853,0.0
2,2, 1, 2, 0,18, 0.00,60.00,Wednesday
16,7844187.867063701
804,18667457.06893052
853,0.0
2,2, 1, 2, 0,19, 0.00,60.00,Wednesday
16,7843478.632184621
804,19353505.114727695
853,0.0
2,2, 1, 2, 0,20, 0.00,60.00,Wednesday
16,7843264.859535414
804,489151.65175117727
853,0.0
2,2, 1, 2, 0,21, 0.00,60.00,Wednesday
16,7860798.751428699
804,2606235.891223737
853,0.0
2,2, 1, 2, 0,22, 0.00,60.00,Wednesday
16,9173997.25437848
804,3429680.8175755134
853,0.0
2,2, 1, 2, 0,23, 0.00,60.00,Wednesday
16,9173642.324094508
804,3998204.444197725
853,0.0
2,2, 1, 2, 0,24, 0.00,60.00,Wednesday
16,8140157.356186698
804,4551997.698215467
853,0.0
3,2, 1, 2, 0,Wednesday
7,3.686458333333334,2.7,19,60,4.7,15,60
8,0.859375,-2.5,24,60,3.0, 8,60
9,2.7411140405471186,1.1746816380023941, 1,60,3.8128607493951674, 8,60
10,16.630208333333332,0.0, 1,15,76.0,12,30
11,62.854166666666664,0.0, 1,15,310.0,15,30
12,171.8131188905313,1.5259563868488346, 1,45,340.83120702053344,24,60
13,-20.25473323294449,-60.545572589949266, 1,45,14.530053212951353,13,45
1790,53798186.83021557,0.0, 1,15,3273419.833441465,10,15
2,3, 1, 3, 0, 1, 0.00,60.00,Thursday
16,4566240.878071144
804,4916128.97250978
853,0.0
2,3, 1, 3, 0, 2, 0.00,60.00,Thursday
16,4566240.878071144
804,5299261.878640372
853,0.0
2,3, 1, 3, 0, 3, 0.00,60.00,Thursday
16,4566240.878071144
804,5533874.140307048
853,0.0
2,3, 1, 3, 0, 4, 0.00,60.00,Thursday
16,7220382.069617739
804,5944905.078899669
853,0.0
2,3, 1, 3, 0, 5, 0.00,60.00,Thursday
16,4566240.878071144
804,6254490.11367701
853,0.0
2,3, 1, 3, 0, 6, 0.00,60.00,Thursday
16,4566240.878071144
804,6715310.212322996
853,0.0
2,3, 1, 3, 0, 7, 0.00,60.00,Thursday
16,7767248.400534049
804,7345186.849937959
853,0.0
2,3, 1, 3, 0, 8, 0.00,60.00,Thursday
16,7766958.344630449
804,31328429.804293267
853,0.0
2,3, 1, 3, 0, 9, 0.00,60.00,Thursday
16,11840022.978613803
804,28743925.687938847
853,0.0
2,3, 1, 3, 0,10, 0.00,60.00,Thursday
16,8202494.002676632
804,25389253.63343064
853,0.0
2,3, 1, 3, 0,11, 0.00,60.00,Thursday
16,7375292.674472975
804,22238534.480226632
853,0.0
2,3, 1, 3, 0,12, 0.00,60.00,Thursday
16,4566240.878071144
804,19985144.822645836
853,0.0
2,3, 1, 3, 0,13, 0.00,60.00,Thursday
16,7375187.649872469
804,18640477.912741818
853,0.0
2,3, 1, 3, 0,14, 0.00,60.00,Thursday
16,5873761.128477656
804,15775305.48791902
853,0.0
2,3, 1, 3, 0,15, 0.00,60.00,Thursday
16,6067612.889772297
804,12057453.572597114
853,0.0
2,3, 1, 3, 0,16, 0.00,60.00,Thursday
16,7375129.175633801
804,13890666.107141072
853,0.0
2,3, 1, 3, 0,17, 0.00,60.00,Thursday
16,4566240.878071144
804,19179440.164314054
853,0.0
2,3, 1, 3, 0,18, 0.00,60.00,Thursday
16,7843483.415358195
804,20911091.115745846
853,0.0
2,3, 1, 3, 0,19, 0.00,60.00,Thursday
16,9721515.530924894
804,21607886.412484538
853,0.0
2,3, 1, 3, 0,20, 0.00,60.00,Thursday
16,9243605.727929799
804,1418502.7124078576
853,0.0
2,3, 1, 3, 0,21, 0.00,60.00,Thursday
16,7843559.461042862
804,4393904.262013918
853,0.0
2,3, 1, 3, 0,22, 0.00,60.00,Thursday
16,7768044.130836947
804,5264638.932385274
853,0.0
2,3, 1, 3, 0,23, 0.00,60.00,Thursday
16,7767300.209064847
804,5680992.570164142
853,0.0
2,3, 1, 3, 0,24, 0.00,60.00,Thursday
16,7767419.0183638865
804,5907197.892025093
853,0.0
3,3, 1, 3, 0,Thursday
7,1.1666666666666665,-1.0,19,60,2.775, 1,15
8,-0.6007504992247794,-2.2,13,60,1.3,24,60
9,0.3890060654580482,-1.321738782587282,19,60,2.1129291271731074, 1,15
10,14.333333333333334,0.0, 1,15,65.0,13,30
11,122.921875,0.0, 1,15,558.0,13,30
12,171.70635220439564,1.3083254005832814, 1,45,340.6669445746221,24,60
13,-20.176959693862347,-60.45738645598138, 1,45,14.6208584194948,13,45
1790,51473629.69255246,0.0, 1,15,3273431.8192785042, 9,15
2,4, 1, 4, 0, 1, 0.00,60.00,Friday
16,4566240.878071144
804,6893471.033021957
853,0.0
2,4, 1, 4, 0, 2, 0.00,60.00,Friday
16,7220926.076076161
804,7835747.063821282
853,0.0
2,4, 1, 4, 0, 3, 0.00,60.00,Friday
16,4566240.878071144
804,8341453.7412035875
853,0.0
2,4, 1, 4, 0, 4, 0.00,60.00,Friday
16,4566240.878071144
804,8818794.377812274
853,0.0
2,4, 1, 4, 0, 5, 0.00,60.00,Friday
16,5958765.502362039
804,9519135.913701044
853,0.0
2,4, 1, 4, 0, 6, 0.00,60.00,Friday
16,5827818.984775304
804,10108748.993746538
853,0.0
2,4, 1, 4, 0, 7, 0.00,60.00,Friday
16,7767986.072019247
804,10613352.749511544
853,0.0
2,4, 1, 4, 0, 8, 0.00,60.00,Friday
16,7767427.7396098245
804,36246665.22016813
853,0.0
2,4, 1, 4, 0, 9, 0.00,60.00,Friday
16,8798395.124917496
804,32688188.222165275
853,0.0
2,4, 1, 4, 0,10, 0.00,60.00,Friday
16,11244079.692752237
804,28866816.43377151
853,0.0
2,4, 1, 4, 0,11, 0.00,60.00,Friday
16,4566240.878071144
804,25671042.095610153
853,0.0
2,4, 1, 4, 0,12, 0.00,60.00,Friday
16,7375576.024139894
804,23295527.752115905
853,0.0
2,4, 1, 4, 0,13, 0.00,60.00,Friday
16,5129945.4498623265
804,21638784.457388006
853,0.0
2,4, 1, 4, 0,14, 0.00,60.00,Friday
16,6811683.20488175
804,18499008.145474922
853,0.0
2,4, 1, 4, 0,15, 0.00,60.00,Friday
16,7375250.005559608
804,14586537.735316591
853,0.0
2,4, 1, 4, 0,16, 0.00,60.00,Friday
16,4566240.878071144
804,16361313.254973367
853,0.0
2,4, 1, 4, 0,17, 0.00,60.00,Friday
16,7375162.732511264
804,21751447.215190135
853,0.0
2,4, 1, 4, 0,18, 0.00,60.00,Friday
16,7844327.814150983
804,23426319.291806377
853,0.0
2,4, 1, 4, 0,19, 0.00,60.00,Friday
16,7843582.650109414
804,24047278.99614954
853,0.0
2,4, 1, 4, 0,20, 0.00,60.00,Friday
16,7843271.838568524
804,3116826.8391084513
853,0.0
2,4, 1, 4, 0,21, 0.00,60.00,Friday
16,8802492.781062568
804,6939129.241617266
853,0.0
2,4, 1, 4, 0,22, 0.00,60.00,Friday
16,9173592.925183434
804,8078351.527699147
853,0.0
2,4, 1, 4, 0,23, 0.00,60.00,Friday
16,8626091.295633763
804,9197909.42022579
853,0.0
2,4, 1, 4, 0,24, 0.00,60.00,Friday
16,7767383.797323376
804,10023757.015531294
853,0.0
3,4, 1, 4, 0,Friday
7,-2.370833333333333,-5.0,23,60,0.5999999999999999, 1,15
8,-3.617708333333334,-7.7,24,60,0.3750000000000001, 1,15
9,-2.8442852708335775,-5.828734757976214,24,60,0.4861570244684519, 1,15
10,14.375,0.0, 1,15,66.0,13,30
11,129.13541666666666,0.0, 1,15,576.0,13,30
12,171.60081020210077,1.0940828941618326, 1,45,340.50922888156305,24,60
13,-20.09265613455602,-60.36138875158809, 1,45,14.71905019080346,13,45
1790,53815664.72533272,0.0, 1,15,3273445.3241465366, 9,30
2,5, 1, 5, 0, 1, 0.00,60.00,Saturday
16,4566240.878071144
804,10410144.207833556
853,0.0
2,5, 1, 5, 0, 2, 0.00,60.00,Saturday
16,4566240.878071144
804,10828693.512705097
853,0.0
2,5, 1, 5, 0, 3, 0.00,60.00,Saturday
16,5745816.530189545
804,11429019.565942658
853,0.0
2,5, 1, 5, 0, 4, 0.00,60.00,Saturday
16,6040778.169525772
804,11987592.833912224
853,0.0
2,5, 1, 5, 0, 5, 0.00,60.00,Saturday
16,4566240.878071144
804,12457946.900239777
853,0.0
2,5, 1, 5, 0, 6, 0.00,60.00,Saturday
16,4566240.878071144
804,12935274.531151576
853,0.0
2,5, 1, 5, 0, 7, 0.00,60.00,Saturday
16,7767285.793304125
804,13381736.044136941
853,0.0
2,5, 1, 5, 0, 8, 0.00,60.00,Saturday
16,8583643.247235062
804,40466697.11329286
853,0.0
2,5, 1, 5, 0, 9, 0.00,60.00,Saturday
16,10913557.861391706
804,36674037.00535576
853,0.0
2,5, 1, 5, 0,10, 0.00,60.00,Saturday
16,8202352.283978831
804,32951482.50562564
853,0.0
2,5, 1, 5, 0,11, 0.00,60.00,Saturday
16,7375787.491297355
804,29952669.36265997
853,0.0
2,5, 1, 5, 0,12, 0.00,60.00,Saturday
16,4566240.878071144
804,27731878.503522985
853,0.0
2,5, 1, 5, 0,13, 0.00,60.00,Saturday
16,7375811.1689531
804,26194403.255392045
853,0.0
2,5, 1, 5, 0,14, 0.00,60.00,Saturday
16,7375633.895253257
804,22845303.107456703
853,0.0
2,5, 1, 5, 0,15, 0.00,60.00,Saturday
16,4566240.878071144
804,18901233.77074976
853,0.0
2,5, 1, 5, 0,16, 0.00,60.00,Saturday
16,7375432.378886001
804,20538212.89005737
853,0.0
2,5, 1, 5, 0,17, 0.00,60.00,Saturday
16,4566240.878071144
804,25013947.249211818
853,0.0
2,5, 1, 5, 0,18, 0.00,60.00,Saturday
16,8713183.006188082
804,26175039.6523078
853,0.0
2,5, 1, 5, 0,19, 0.00,60.00,Saturday
16,10181039.077262636
804,26243665.20678156
853,0.0
2,5, 1, 5, 0,20, 0.00,60.00,Saturday
16,7914797.372004052
804,3533932.334036084
853,0.0
2,5, 1, 5, 0,21, 0.00,60.00,Saturday
16,7844259.3935817005
804,6950979.853533633
853,0.0
2,5, 1, 5, 0,22, 0.00,60.00,Saturday
16,7767286.705857009
804,7778717.889067382
853,0.0
2,5, 1, 5, 0,23, 0.00,60.00,Saturday
16,7767440.231833228
804,8459514.60691055
853,0.0
2,5, 1, 5, 0,24, 0.00,60.00,Saturday
16,7768051.434063822
804,9058331.032306008
853,0.0
3,5, 1, 5, 0,Saturday
7,-4.088541666666665,-5.5, 7,60,-2.8,13,60
8,-7.080208333333332,-7.45, 1,15,-6.7, 1,60
9,-5.141229228510597,-6.135298049949361, 7,60,-4.298956651781032,13,60
10,14.5703125,0.0, 1,15,65.0,13,30
11,132.4921875,0.0, 1,15,603.0,13,30
12,171.49660012976298,0.8835410953785034, 1,45,340.35825202416595,24,60
13,-20.001856138640335,-60.257633494339274, 1,45,14.82458830946985,13,45
1790,51377455.002236255,0.0, 1,15,2950216.663959501,21,45
2,6, 1, 6, 0, 1, 0.00,60.00,Sunday
16,6794083.86796031
804,9555833.687699813
853,0.0
2,6, 1, 6, 0, 2, 0.00,60.00,Sunday
16,4992744.622079419
804,10009264.985423878
853,0.0
2,6, 1, 6, 0, 3, 0.00,60.00,Sunday
16,4566240.878071144
804,10385478.795369064
853,0.0
2,6, 1, 6, 0, 4, 0.00,60.00,Sunday
16,4566240.878071144
804,10666039.07462713
853,0.0
2,6, 1, 6, 0, 5, 0.00,60.00,Sunday
16,7220939.616704628
804,10926666.775956642
853,0.0
2,6, 1, 6, 0, 6, 0.00,60.00,Sunday
16,4566240.878071144
804,11138042.162083063
853,0.0
2,6, 1, 6, 0, 7, 0.00,60.00,Sunday
16,7767404.033490903
804,11343623.446074389
853,0.0
2,6, 1, 6, 0, 8, 0.00,60.00,Sunday
16,7767310.768410371
804,37494494.16081852
853,0.0
2,6, 1, 6, 0, 9, 0.00,60.00,Sunday
16,9792330.556391742
804,33928118.69332433
853,0.0
2,6, 1, 6, 0,10, 0.00,60.00,Sunday
16,10248737.502463423
804,30865296.760486424
853,0.0
2,6, 1, 6, 0,11, 0.00,60.00,Sunday
16,4566240.878071144
804,28230723.622322526
853,0.0
2,6, 1, 6, 0,12, 0.00,60.00,Sunday
16,7375748.592092374
804,26047904.972864397
853,0.0
2,6, 1, 6, 0,13, 0.00,60.00,Sunday
16,7375772.329381147
804,24813440.076637782
853,0.0
2,6, 1, 6, 0,14, 0.00,60.00,Sunday
16,4566240.878071144
804,24037490.48734929
853,0.0
2,6, 1, 6, 0,15, 0.00,60.00,Sunday
16,7375796.03027226
804,23298146.54023569
853,0.0
2,6, 1, 6, 0,16, 0.00,60.00,Sunday
16,4566240.878071144
804,23572392.943911005
853,0.0
2,6, 1, 6, 0,17, 0.00,60.00,Sunday
16,7375789.242785814
804,24222620.70887243
853,0.0
2,6, 1, 6, 0,18, 0.00,60.00,Sunday
16,7843491.266254338
804,23963823.554044325
853,0.0
2,6, 1, 6, 0,19, 0.00,60.00,Sunday
16,7844274.197479954
804,23458767.44303298
853,0.0
2,6, 1, 6, 0,20, 0.00,60.00,Sunday
16,7843244.7617748
804,1960591.0546560884
853,0.0
2,6, 1, 6, 0,21, 0.00,60.00,Sunday
16,10135440.645596234
804,4861521.912896236
853,0.0
2,6, 1, 6, 0,22, 0.00,60.00,Sunday
16,8730843.308574956
804,5641385.949902499
853,0.0
2,6, 1, 6, 0,23, 0.00,60.00,Sunday
16,7767436.988330977
804,6235585.600825712
853,0.0
2,6, 1, 6, 0,24, 0.00,60.00,Sunday
16,7767288.98140441
804,6750828.052546579
853,0.0
3,6, 1, 6, 0,Sunday
7,-3.4229166666666675,-4.6, 7,60,-2.4,19,60
8,-4.572395833333333,-7.1, 1,15,-3.0,24,60
9,-3.8650041755420497,-4.887844760743663, 2,60,-2.6504321491632616,24,60
10,16.927083333333332,0.0, 1,15,89.0,12,30
11,4.8203125,0.0, 1,15,29.0,15,30
12,171.39382734271808,0.676999179191866, 1,45,340.21418969258576,24,60
13,-19.90459616452433,-60.14617945944964, 1,45,14.937429352245028,13,45
1790,53843707.35555072,0.0, 1,15,2950320.3683445994,21,15
2,7, 1, 7, 0, 1, 0.00,60.00,Monday
16,4566240.878071144
804,7213786.39154389
853,0.0
2,7, 1, 7, 0, 2, 0.00,60.00,Monday
16,4566240.878071144
804,7790030.083977557
853,0.0
2,7, 1, 7, 0, 3, 0.00,60.00,Monday
16,7220905.640923163
804,8673363.811098794
853,0.0
2,7, 1, 7, 0, 4, 0.00,60.00,Monday
16,4566240.878071144
804,9695929.790668024
853,0.0
2,7, 1, 7, 0, 5, 0.00,60.00,Monday
16,4566240.878071144
804,10962936.647571832
853,0.0
2,7, 1, 7, 0, 6, 0.00,60.00,Monday
16,4566240.878071144
804,11971428.432194116
853,0.0
2,7, 1, 7, 0, 7, 0.00,60.00,Monday
16,8469351.258526787
804,13004819.979528166
853,0.0
2,7, 1, 7, 0, 8, 0.00,60.00,Monday
16,9174842.072158992
804,39912702.13680328
853,0.0
2,7, 1, 7, 0, 9, 0.00,60.00,Monday
16,9445670.271817485
804,35708860.6392874
853,0.0
2,7, 1, 7, 0,10, 0.00,60.00,Monday
16,8220313.190647678
804,31807881.675521106
853,0.0
2,7, 1, 7, 0,11, 0.00,60.00,Monday
16,7362499.139549982
804,28411966.814966783
853,0.0
2,7, 1, 7, 0,12, 0.00,60.00,Monday
16,7375567.905408457
804,25611836.741614334
853,0.0
2,7, 1, 7, 0,13, 0.00,60.00,Monday
16,4566240.878071144
804,23699916.511533186
853,0.0
2,7, 1, 7, 0,14, 0.00,60.00,Monday
16,7375381.585950203
804,20808868.158288192
853,0.0
2,7, 1, 7, 0,15, 0.00,60.00,Monday
16,4566240.878071144
804,18049099.528265677
853,0.0
2,7, 1, 7, 0,16, 0.00,60.00,Monday
16,7375245.743581166
804,19408643.56132213
853,0.0
2,7, 1, 7, 0,17, 0.00,60.00,Monday
16,5702274.823754637
804,23431891.569600165
853,0.0
2,7, 1, 7, 0,18, 0.00,60.00,Monday
16,9799212.583627392
804,24414667.198297866
853,0.0
2,7, 1, 7, 0,19, 0.00,60.00,Monday
16,7843453.372840337
804,24391690.143687375
853,0.0
2,7, 1, 7, 0,20, 0.00,60.00,Monday
16,7843570.06273417
804,2609306.469467136
853,0.0
2,7, 1, 7, 0,21, 0.00,60.00,Monday
16,7843525.37982648
804,5645705.947620528
853,0.0
2,7, 1, 7, 0,22, 0.00,60.00,Monday
16,7768097.065999595
804,6397814.37775192
853,0.0
2,7, 1, 7, 0,23, 0.00,60.00,Monday
16,7767229.433486637
804,7109616.512029808
853,0.0
2,7, 1, 7, 0,24, 0.00,60.00,Monday
16,7767577.09800197
804,7754445.414232042
853,0.0
3,7, 1, 7, 0,Monday
7,-5.505729166666664,-11.1, 7,60,-2.3,24,60
8,-6.389583333333333,-12.1, 7,60,-2.9, 1,60
9,-5.813797856992925,-11.366139782034363, 7,60,-2.600129425188394, 1,60
10,18.200520833333332,0.0, 1,15,84.0,12,30
11,80.8359375,0.0, 1,15,390.0,13,30
12,171.29259514926343,0.4747425056558858, 1,45,340.0772010768144,24,60
13,-19.800915512093123,-60.02709001319141, 1,45,15.057526730624629,13,45
1790,51055759.53146312,0.0, 1,15,3261862.318732762,10,30
2,8, 1, 8, 0, 1, 0.00,60.00,Tuesday
16,7220942.054692879
804,8354047.590143764
853,0.0
2,8, 1, 8, 0, 2, 0.00,60.00,Tuesday
16,4566240.878071144
804,8830585.795658015
853,0.0
2,8, 1, 8, 0, 3, 0.00,60.00,Tuesday
16,4566240.878071144
804,9235908.747285781
853,0.0
2,8, 1, 8, 0, 4, 0.00,60.00,Tuesday
16,7220416.022875683
804,9753092.596636392
853,0.0
2,8, 1, 8, 0, 5, 0.00,60.00,Tuesday
16,4566240.878071144
804,10129608.466112284
853,0.0
2,8, 1, 8, 0, 6, 0.00,60.00,Tuesday
16,4566240.878071144
804,10391334.224592648
853,0.0
2,8, 1, 8, 0, 7, 0.00,60.00,Tuesday
16,7768042.55108851
804,10646807.815750401
853,0.0
2,8, 1, 8, 0, 8, 0.00,60.00,Tuesday
16,7767405.042948131
804,36140829.79759226
853,0.0
2,8, 1, 8, 0, 9, 0.00,60.00,Tuesday
16,11839729.46317846
804,32361965.796855707
853,0.0
2,8, 1, 8, 0,10, 0.00,60.00,Tuesday
16,8203325.774247761
804,29288093.51487009
853,0.0
2,8, 1, 8, 0,11, 0.00,60.00,Tuesday
16,7375126.37650414
804,27156764.937952444
853,0.0
2,8, 1, 8, 0,12, 0.00,60.00,Tuesday
16,4566240.878071144
804,25578489.011482563
853,0.0
2,8, 1, 8, 0,13, 0.00,60.00,Tuesday
16,7375164.760846455
804,24558806.871398784
853,0.0
2,8, 1, 8, 0,14, 0.00,60.00,Tuesday
16,4566240.878071144
804,24123480.096868545
853,0.0
2,8, 1, 8, 0,15, 0.00,60.00,Tuesday
16,7375253.759421799
804,23630971.373411812
853,0.0
2,8, 1, 8, 0,16, 0.00,60.00,Tuesday
16,6953217.462165937
804,23341255.797791146
853,0.0
2,8, 1, 8, 0,17, 0.00,60.00,Tuesday
16,4988416.8331115935
804,23206993.09563183
853,0.0
2,8, 1, 8, 0,18, 0.00,60.00,Tuesday
16,7844377.621062959
804,22783370.37393429
853,0.0
2,8, 1, 8, 0,19, 0.00,60.00,Tuesday
16,8262901.9678159505
804,22256743.587452188
853,0.0
2,8, 1, 8, 0,20, 0.00,60.00,Tuesday
16,10180974.322134767
804,1177903.6445370198
853,0.0
2,8, 1, 8, 0,21, 0.00,60.00,Tuesday
16,8364029.956945928
804,3373454.978803975
853,0.0
2,8, 1, 8, 0,22, 0.00,60.00,Tuesday
16,7767336.638745098
804,3706438.59751591
853,0.0
2,8, 1, 8, 0,23, 0.00,60.00,Tuesday
16,7768007.723834969
804,4128317.3564475067
853,0.0
2,8, 1, 8, 0,24, 0.00,60.00,Tuesday
16,7767373.906316631
804,4640357.391193385
853,0.0
3,8, 1, 8, 0,Tuesday
7,0.33385416666666695,-2.25, 1,15,4.0,23,60
8,-0.19583404686953979,-3.6, 7,60,4.0,23,60
9,0.1188314416176298,-2.7575005134912995, 7,60,4.0,23,60
10,6.432291666666667,0.0, 1,15,34.0,12,30
11,0.3151041666666667,0.0, 1,15,7.0,10,30
12,171.19300465716188,0.2770419467789127, 1,45,339.9474288361953,24,60
13,-19.69085628613162,-59.900432936670626, 1,45,15.184830734836614,13,45
1790,53864735.789391354,0.0, 1,30,3273295.616160755, 9,60
2,9, 1, 9, 0, 1, 0.00,60.00,Wednesday
16,4566240.878071144
804,5074878.828733036
853,0.0
2,9, 1, 9, 0, 2, 0.00,60.00,Wednesday
16,7220675.804215917
804,5881648.015709481
853,0.0
2,9, 1, 9, 0, 3, 0.00,60.00,Wednesday
16,4566240.878071144
804,6804057.199841652
853,0.0
2,9, 1, 9, 0, 4, 0.00,60.00,Wednesday
16,4566240.878071144
804,7233223.440901618
853,0.0
2,9, 1, 9, 0, 5, 0.00,60.00,Wednesday
16,4566240.878071144
804,7161285.103397386
853,0.0
2,9, 1, 9, 0, 6, 0.00,60.00,Wednesday
16,7220587.795138362
804,6788167.863048897
853,0.0
2,9, 1, 9, 0, 7, 0.00,60.00,Wednesday
16,7767242.840437284
804,6660562.460850765
853,0.0
2,9, 1, 9, 0, 8, 0.00,60.00,Wednesday
16,7767948.252406471
804,30667224.76996296
853,0.0
2,9, 1, 9, 0, 9, 0.00,60.00,Wednesday
16,8202765.661785863
804,27788376.983278755
853,0.0
2,9, 1, 9, 0,10, 0.00,60.00,Wednesday
16,11840287.0184131
804,24233960.134874612
853,0.0
2,9, 1, 9, 0,11, 0.00,60.00,Wednesday
16,4566240.878071144
804,21156336.095681813
853,0.0
2,9, 1, 9, 0,12, 0.00,60.00,Wednesday
16,7375173.422306389
804,18866396.342944056
853,0.0
2,9, 1, 9, 0,13, 0.00,60.00,Wednesday
16,4566240.878071144
804,17604309.027780175
853,0.0
2,9, 1, 9, 0,14, 0.00,60.00,Wednesday
16,7375128.5012848005
804,16996077.68910259
853,0.0
2,9, 1, 9, 0,15, 0.00,60.00,Wednesday
16,6208205.504702309
804,17545060.563706383
853,0.0
2,9, 1, 9, 0,16, 0.00,60.00,Wednesday
16,5733169.505104301
804,18459357.810639486
853,0.0
2,9, 1, 9, 0,17, 0.00,60.00,Wednesday
16,7375190.35006923
804,18963413.495382257
853,0.0
2,9, 1, 9, 0,18, 0.00,60.00,Wednesday
16,7843807.127928928
804,19979436.146186177
853,0.0
2,9, 1, 9, 0,19, 0.00,60.00,Wednesday
16,7843653.772125114
804,23226776.83642986
853,0.0
2,9, 1, 9, 0,20, 0.00,60.00,Wednesday
16,7843285.76917486
804,311891.91722576984
853,0.0
2,9, 1, 9, 0,21, 0.00,60.00,Wednesday
16,7843492.116233529
804,1583253.7917503275
853,0.0
2,9, 1, 9, 0,22, 0.00,60.00,Wednesday
16,8627049.973417759
804,1876936.5575999469
853,0.0
2,9, 1, 9, 0,23, 0.00,60.00,Wednesday
16,9173601.869039968
804,2144797.7726939716
853,0.0
2,9, 1, 9, 0,24, 0.00,60.00,Wednesday
16,8703803.853302352
804,2448085.3155978573
853,0.0
3,9, 1, 9, 0,Wednesday
7,4.736458333333332,2.1, 3,60,7.6,23,60
8,4.126040580561692,1.9, 1,60,5.999997196412721,13,60
9,4.590807866781274,2.0999984741210938, 3,60,6.748006875248453,23,60
10,18.317708333333332,0.0, 1,15,94.0,12,30
11,18.375,0.0, 1,15,158.0,13,30
12,171.0951546233548,0.08415330395139851, 1,45,339.824999142154,24,60
13,-19.574463356569648,-59.76628024130013, 1,45,15.319288581092687,13,45
1790,53795459.99862535,0.0, 1,15,3273308.4897780013,10,15
2,10, 1,10, 0, 1, 0.00,60.00,Thursday
16,4566240.878071144
804,3285814.869480347
853,0.0
2,10, 1,10, 0, 2, 0.00,60.00,Thursday
16,4566240.878071144
804,3517377.786830537
853,0.0
2,10, 1,10, 0, 3, 0.00,60.00,Thursday
16,4566240.878071144
804,4678170.227280842
853,0.0
2,10, 1,10, 0, 4, 0.00,60.00,Thursday
16,7220803.477926841
804,5536134.660113794
853,0.0
2,10, 1,10, 0, 5, 0.00,60.00,Thursday
16,4566240.878071144
804,5916873.13923361
853,0.0
2,10, 1,10, 0, 6, 0.00,60.00,Thursday
16,4566240.878071144
804,6187391.027136138
853,0.0
2,10, 1,10, 0, 7, 0.00,60.00,Thursday
16,7767480.312206053
804,6452083.385963064
853,0.0
2,10, 1,10, 0, 8, 0.00,60.00,Thursday
16,7767043.6219687415
804,29666741.583072163
853,0.0
2,10, 1,10, 0, 9, 0.00,60.00,Thursday
16,11840253.677582918
804,27638989.80183772
853,0.0
2,10, 1,10, 0,10, 0.00,60.00,Thursday
16,8202705.729132707
804,24828112.602482513
853,0.0
2,10, 1,10, 0,11, 0.00,60.00,Thursday
16,7375778.348747362
804,21825901.449834127
853,0.0
2,10, 1,10, 0,12, 0.00,60.00,Thursday
16,4566240.878071144
804,19509621.047110602
853,0.0
2,10, 1,10, 0,13, 0.00,60.00,Thursday
16,7375802.040412681
804,18268200.09928104
853,0.0
2,10, 1,10, 0,14, 0.00,60.00,Thursday
16,4667388.106065753
804,17062457.15646033
853,0.0
2,10, 1,10, 0,15, 0.00,60.00,Thursday
16,7274577.8747442
804,17105352.36226945
853,0.0
2,10, 1,10, 0,16, 0.00,60.00,Thursday
16,7375504.122508345
804,18489198.489451833
853,0.0
2,10, 1,10, 0,17, 0.00,60.00,Thursday
16,4566240.878071144
804,19346232.87404036
853,0.0
2,10, 1,10, 0,18, 0.00,60.00,Thursday
16,7843663.949672172
804,19912005.15753521
853,0.0
2,10, 1,10, 0,19, 0.00,60.00,Thursday
16,9207832.210492427
804,19974271.470085382
853,0.0
2,10, 1,10, 0,20, 0.00,60.00,Thursday
16,9756911.680691434
804,519793.4208330675
853,0.0
2,10, 1,10, 0,21, 0.00,60.00,Thursday
16,7843454.8110609595
804,2696491.2170472154
853,0.0
2,10, 1,10, 0,22, 0.00,60.00,Thursday
16,7767932.015992588
804,3542584.2941182223
853,0.0
2,10, 1,10, 0,23, 0.00,60.00,Thursday
16,7767592.3254517075
804,3991420.1308250455
853,0.0
2,10, 1,10, 0,24, 0.00,60.00,Thursday
16,7767225.86123142
804,4062894.7252437095
853,0.0
3,10, 1,10, 0,Thursday
7,4.616666666666666,2.7,23,60,7.5249999999999995, 1,15
8,2.0005208333333333,0.2, 7,60,5.3999999999999995, 1,15
9,3.6733112254525153,2.509699567522247,23,60,6.459245160919081, 1,15
10,18.4375,0.0, 1,15,91.0,13,30
11,35.565104166666664,0.0, 1,15,199.0,10,30
12,171.00130137365522,0.1036831833804491, 1,45,339.71002178991677,24,60
13,-19.451784315637955,-59.624707977317236, 1,45,15.460844461957508,13,45
1790,51476269.714811,0.0, 1,15,3273321.6244336357, 9,15
2,11, 1,11, 0, 1, 0.00,60.00,Friday
16,4566240.878071144
804,4177892.167706674
853,0.0
2,11, 1,11, 0, 2, 0.00,60.00,Friday
16,7220373.26464252
804,4608120.842542721
853,0.0
2,11, 1,11, 0, 3, 0.00,60.00,Friday
16,4566240.878071144
804,5222360.306554707
853,0.0
2,11, 1,11, 0, 4, 0.00,60.00,Friday
16,4566240.878071144
804,5977941.626753904
853,0.0
2,11, 1,11, 0, 5, 0.00,60.00,Friday
16,4566240.878071144
804,6710122.018339882
853,0.0
2,11, 1,11, 0, 6, 0.00,60.00,Friday
16,7220897.149465472
804,7095945.867002979
853,0.0
2,11, 1,11, 0, 7, 0.00,60.00,Friday
16,7767804.67613358
804,7132914.13991796
853,0.0
2,11, 1,11, 0, 8, 0.00,60.00,Friday
16,7767822.237209747
804,30452846.943866678
853,0.0
2,11, 1,11, 0, 9, 0.00,60.00,Friday
16,8414693.038965879
804,28099176.982536845
853,0.0
2,11, 1,11, 0,10, 0.00,60.00,Friday
16,11628203.138682272
804,25090168.29319856
853,0.0
2,11, 1,11, 0,11, 0.00,60.00,Friday
16,4566240.878071144
804,22109074.444550194
853,0.0
2,11, 1,11, 0,12, 0.00,60.00,Friday
16,7375739.411894672
804,20309802.565020937
853,0.0
2,11, 1,11, 0,13, 0.00,60.00,Friday
16,4566240.878071144
804,19115143.60783192
853,0.0
2,11, 1,11, 0,14, 0.00,60.00,Friday
16,7375763.163266707
804,16980469.331653558
853,0.0
2,11, 1,11, 0,15, 0.00,60.00,Friday
16,7375786.87820974
804,14236559.225400096
853,0.0
2,11, 1,11, 0,16, 0.00,60.00,Friday
16,4566240.878071144
804,15530973.461831719
853,0.0
2,11, 1,11, 0,17, 0.00,60.00,Friday
16,7375810.556804704
804,19362496.24004247
853,0.0
2,11, 1,11, 0,18, 0.00,60.00,Friday
16,7844282.892186109
804,20199684.27963984
853,0.0
2,11, 1,11, 0,19, 0.00,60.00,Friday
16,7843458.845836288
804,20285232.58236674
853,0.0
2,11, 1,11, 0,20, 0.00,60.00,Friday
16,7843265.09613652
804,862365.2469557188
853,0.0
2,11, 1,11, 0,21, 0.00,60.00,Friday
16,8288438.458026916
804,3360554.2345910817
853,0.0
2,11, 1,11, 0,22, 0.00,60.00,Friday
16,9173732.704179691
804,4168102.4892228297
853,0.0
2,11, 1,11, 0,23, 0.00,60.00,Friday
16,9128064.44800027
804,4939743.369625725
853,0.0
2,11, 1,11, 0,24, 0.00,60.00,Friday
16,7767700.542555613
804,5309688.205015801
853,0.0
3,11, 1,11, 0,Friday
7,3.1302083333333326,2.1,23,60,4.4,15,60
8,1.0171875000000001,0.1, 7,60,2.4, 3,60
9,2.372332722381356,1.54409270954401,23,60,3.567697330803043, 1,60
10,16.3828125,0.0, 1,15,76.0,13,30
11,100.76822916666667,0.0, 1,15,475.0,13,30
12,170.9110217294324,0.2862432384600441, 1,45,339.602590374645,24,60
13,-19.322869432033745,-59.47579603669277, 1,45,15.609439599683608,13,45
1790,53807167.41748852,0.0, 1,15,3273335.0429861974, 9,30
2,12, 1,12, 0, 1, 0.00,60.00,Saturday