Program Version,EnergyPlus, Version 23.2.0-7636e6b3e9, YMD=2025.01.19 23:22
1,5,Environment Title[],Latitude[deg],Longitude[deg],Time Zone[],Elevation[m]
2,8,Day of Simulation[],Month[],Day of Month[],DST Indicator[1=yes 0=no],Hour[],StartMinute[],EndMinute[],DayType
3,5,Cumulative Day of Simulation[],Month[],Day of Month[],DST Indicator[1=yes 0=no],DayType  ! When Daily Report Variables Requested
4,2,Cumulative Days of Simulation[],Month[]  ! When Monthly Report Variables Requested
5,1,Cumulative Days of Simulation[] ! When Run Period Report Variables Requested
6,1,Calendar Year of Simulation[] ! When Annual Report Variables Requested
7,7,Environment,Site Outdoor Air Drybulb Temperature [C] !Daily [Value,Min,Hour,Minute,Max,Hour,Minute]
8,7,Environment,Site Outdoor Air Dewpoint Temperature [C] !Daily [Value,Min,Hour,Minute,Max,Hour,Minute]
9,7,Environment,Site Outdoor Air Wetbulb Temperature [C] !Daily [Value,Min,Hour,Minute,Max,Hour,Minute]
10,7,Environment,Site Diffuse Solar Radiation Rate per Area [W/m2] !Daily [Value,Min,Hour,Minute,Max,Hour,Minute]
11,7,Environment,Site Direct Solar Radiation Rate per Area [W/m2] !Daily [Value,Min,Hour,Minute,Max,Hour,Minute]
12,7,Environment,Site Solar Azimuth Angle [deg] !Daily [Value,Min,Hour,Minute,Max,Hour,Minute]
13,7,Environment,Site Solar Altitude Angle [deg] !Daily [Value,Min,Hour,Minute,Max,Hour,Minute]
1790,7,MYDHW_1_WATERHEATER,Water Heater Heating Energy [J] !Daily [Value,Min,Hour,Minute,Max,Hour,Minute]
804,1,Heating:EnergyTransfer [J] !Hourly
853,1,Cooling:EnergyTransfer [J] !Hourly
16,1,Electricity:Facility [J] !Hourly
End of Data Dictionary
1,RUN PERIOD 1,  52.46,   5.52,   1.00,  -3.90
2,1, 1, 1, 0, 1, 0.00,60.00,Tuesday
16,4566240.878071144
804,5672997.5349038895
853,0.0
2,1, 1, 1, 0, 2, 0.00,60.00,Tuesday
16,4566240.878071144
804,6192819.794607842
853,0.0
2,1, 1, 1, 0, 3, 0.00,60.00,Tuesday
16,4566240.878071144
804,6606948.68913366
853,0.0
2,1, 1, 1, 0, 4, 0.00,60.00,Tuesday
16,7220699.114132891
804,7040492.3267490845
853,0.0
2,1, 1, 1, 0, 5, 0.00,60.00,Tuesday
16,4566240.878071144
804,7405616.515474245
853,0.0
2,1, 1, 1, 0, 6, 0.00,60.00,Tuesday
16,4566240.878071144
804,7766391.235361081
853,0.0
2,1, 1, 1, 0, 7, 0.00,60.00,Tuesday
16,7767822.485813876
804,8008338.126320409
853,0.0
2,1, 1, 1, 0, 8, 0.00,60.00,Tuesday
16,7767176.781317015
804,32286706.529530592
853,0.0
2,1, 1, 1, 0, 9, 0.00,60.00,Tuesday
16,11840161.466138825
804,30064604.317878246
853,0.0
2,1, 1, 1, 0,10, 0.00,60.00,Tuesday
16,8202949.712854129
804,27055367.99721609
853,0.0
2,1, 1, 1, 0,11, 0.00,60.00,Tuesday
16,7375653.336044898
804,24833229.075734653
853,0.0
2,1, 1, 1, 0,12, 0.00,60.00,Tuesday
16,4566240.878071144
804,23499698.895526834
853,0.0
2,1, 1, 1, 0,13, 0.00,60.00,Tuesday
16,7375717.215607863
804,22736479.234183084
853,0.0
2,1, 1, 1, 0,14, 0.00,60.00,Tuesday
16,4566240.878071144
804,22270748.524774496
853,0.0
2,1, 1, 1, 0,15, 0.00,60.00,Tuesday
16,7375741.001046581
804,21516559.25509947
853,0.0
2,1, 1, 1, 0,16, 0.00,60.00,Tuesday
16,7375764.749980418
804,21863219.917417504
853,0.0
2,1, 1, 1, 0,17, 0.00,60.00,Tuesday
16,4566240.878071144
804,23828870.186357886
853,0.0
2,1, 1, 1, 0,18, 0.00,60.00,Tuesday
16,7843937.7454697685
804,24043079.539523672
853,0.0
2,1, 1, 1, 0,19, 0.00,60.00,Tuesday
16,8780216.359831909
804,23606619.11822296
853,0.0
2,1, 1, 1, 0,20, 0.00,60.00,Tuesday
16,10181003.543734638
804,1980234.6084768213
853,0.0
2,1, 1, 1, 0,21, 0.00,60.00,Tuesday
16,7847100.060368886
804,4378289.346004084
853,0.0
2,1, 1, 1, 0,22, 0.00,60.00,Tuesday
16,7767664.192496447
804,4740648.06502386
853,0.0
2,1, 1, 1, 0,23, 0.00,60.00,Tuesday
16,7767983.979597749
804,5048839.309035981
853,0.0
2,1, 1, 1, 0,24, 0.00,60.00,Tuesday
16,7767211.760819584
804,5208352.595135629
853,0.0
3,1, 1, 1, 0,Tuesday
7,2.891666666666666,1.4,16,60,4.2, 1,60
8,-0.03749999999999998,-2.5,10,60,2.1,24,60
9,1.854739388525906,0.4001495373206364,13,60,3.0998073170807516, 1,60
10,17.307291666666668,0.0, 1,15,86.0,12,30
11,26.854166666666668,0.0, 1,15,152.0,10,30
12,171.9210012821981,1.7466514206994332, 1,45,341.00180793165543,24,60
13,-20.325946072972584,-60.625898049216175, 1,45,14.446671545683287,13,45
1790,51477254.51050545,0.0, 1,15,3273406.562819867, 9,60
2,2, 1, 2, 0, 1, 0.00,60.00,Wednesday
16,4566240.878071144
804,6296596.219580247
853,0.0
2,2, 1, 2, 0, 2, 0.00,60.00,Wednesday
16,7220901.161485227
804,6903379.048340894
853,0.0
2,2, 1, 2, 0, 3, 0.00,60.00,Wednesday
16,4566240.878071144
804,7136935.170577395
853,0.0
2,2, 1, 2, 0, 4, 0.00,60.00,Wednesday
16,4566240.878071144
804,7650999.357669239
853,0.0
2,2, 1, 2, 0, 5, 0.00,60.00,Wednesday
16,4566240.878071144
804,7735357.771153762
853,0.0
2,2, 1, 2, 0, 6, 0.00,60.00,Wednesday
16,7220482.361934163
804,7796521.633487488
853,0.0
2,2, 1, 2, 0, 7, 0.00,60.00,Wednesday
16,7767469.264069505
804,7935684.962246514
853,0.0
2,2, 1, 2, 0, 8, 0.00,60.00,Wednesday
16,7768061.725797618
804,31640783.700164285
853,0.0
2,2, 1, 2, 0, 9, 0.00,60.00,Wednesday
16,8203085.875944773
804,28708496.6713701
853,0.0
2,2, 1, 2, 0,10, 0.00,60.00,Wednesday
16,11840043.822163962
804,25505563.226207267
853,0.0
2,2, 1, 2, 0,11, 0.00,60.00,Wednesday
16,4566240.878071144
804,22763927.13641918
853,0.0
2,2, 1, 2, 0,12, 0.00,60.00,Wednesday
16,7375342.502233574
804,21069267.878955834
853,0.0
2,2, 1, 2, 0,13, 0.00,60.00,Wednesday
16,4566240.878071144
804,19437353.941363133
853,0.0
2,2, 1, 2, 0,14, 0.00,60.00,Wednesday
16,7375516.393533643
804,16744063.5163789
853,0.0
2,2, 1, 2, 0,15, 0.00,60.00,Wednesday
16,7375702.074451537
804,13326514.834503878
853,0.0
2,2, 1, 2, 0,16, 0.00,60.00,Wednesday
16,4566240.878071144
804,14168749.413470428
853,0.0
2,2, 1, 2, 0,17, 0.00,60.00,Wednesday
16,7375725.883141436
804,18027215.14235624
853,0.0
2,2, 1, 2, 0,18, 0.00,60.00,Wednesday
16,7844187.870722983
804,19285405.810906664
853,0.0
2,2, 1, 2, 0,19, 0.00,60.00,Wednesday
16,7843478.629270494
804,20023147.65837927
853,0.0
2,2, 1, 2, 0,20, 0.00,60.00,Wednesday
16,7843264.860280253
804,696540.877992594
853,0.0
2,2, 1, 2, 0,21, 0.00,60.00,Wednesday
16,7860944.005321148
804,3104039.3793231472
853,0.0
2,2, 1, 2, 0,22, 0.00,60.00,Wednesday
16,9173997.14159885
804,3877053.249370832
853,0.0
2,2, 1, 2, 0,23, 0.00,60.00,Wednesday
16,9173642.365030969
804,4425265.96124628
853,0.0
2,2, 1, 2, 0,24, 0.00,60.00,Wednesday
16,8140015.25409554
804,4998397.52370594
853,0.0
3,2, 1, 2, 0,Wednesday
7,3.686458333333334,2.7,19,60,4.7,15,60
8,0.859375,-2.5,24,60,3.0, 8,60
9,2.7411140405471186,1.1746816380023941, 1,60,3.8128607493951674, 8,60
10,16.630208333333332,0.0, 1,15,76.0,12,30
11,62.854166666666664,0.0, 1,15,310.0,15,30
12,171.8131188905313,1.5259563868488346, 1,45,340.83120702053344,24,60
13,-20.25473323294449,-60.545572589949266, 1,45,14.530053212951353,13,45
1790,53798189.637479596,0.0, 1,15,3273419.8369731917,10,15
2,3, 1, 3, 0, 1, 0.00,60.00,Thursday
16,4566240.878071144
804,5411921.272782733
853,0.0
2,3, 1, 3, 0, 2, 0.00,60.00,Thursday
16,4566240.878071144
804,5817864.378782769
853,0.0
2,3, 1, 3, 0, 3, 0.00,60.00,Thursday
16,4566240.878071144
804,6058200.856858212
853,0.0
2,3, 1, 3, 0, 4, 0.00,60.00,Thursday
16,7220381.922943538
804,6483281.16487629
853,0.0
2,3, 1, 3, 0, 5, 0.00,60.00,Thursday
16,4566240.878071144
804,6800741.192231477
853,0.0
2,3, 1, 3, 0, 6, 0.00,60.00,Thursday
16,4566240.878071144
804,7277486.242945684
853,0.0
2,3, 1, 3, 0, 7, 0.00,60.00,Thursday
16,7767248.364292551
804,7934350.940838631
853,0.0
2,3, 1, 3, 0, 8, 0.00,60.00,Thursday
16,7766958.33506382
804,32251864.960717566
853,0.0
2,3, 1, 3, 0, 9, 0.00,60.00,Thursday
16,11840022.931512967
804,29561384.298363224
853,0.0
2,3, 1, 3, 0,10, 0.00,60.00,Thursday
16,8202493.960310117
804,26109656.018684894
853,0.0
2,3, 1, 3, 0,11, 0.00,60.00,Thursday
16,7375292.533190196
804,22849565.02633082
853,0.0
2,3, 1, 3, 0,12, 0.00,60.00,Thursday
16,4566240.878071144
804,20522603.320959367
853,0.0
2,3, 1, 3, 0,13, 0.00,60.00,Thursday
16,7375187.563369401
804,19142164.174613167
853,0.0
2,3, 1, 3, 0,14, 0.00,60.00,Thursday
16,5874065.964663122
804,16122685.237576216
853,0.0
2,3, 1, 3, 0,15, 0.00,60.00,Thursday
16,6067308.021895568
804,12161021.399312355
853,0.0
2,3, 1, 3, 0,16, 0.00,60.00,Thursday
16,7375129.198789818
804,14119458.454400238
853,0.0
2,3, 1, 3, 0,17, 0.00,60.00,Thursday
16,4566240.878071144
804,19788218.624191657
853,0.0
2,3, 1, 3, 0,18, 0.00,60.00,Thursday
16,7843483.390271319
804,21634511.075566266
853,0.0
2,3, 1, 3, 0,19, 0.00,60.00,Thursday
16,9721645.323112756
804,22384659.909397513
853,0.0
2,3, 1, 3, 0,20, 0.00,60.00,Thursday
16,9244063.9696733
804,1902253.7354573973
853,0.0
2,3, 1, 3, 0,21, 0.00,60.00,Thursday
16,7843559.083766855
804,4973888.321446667
853,0.0
2,3, 1, 3, 0,22, 0.00,60.00,Thursday
16,7768043.902335487
804,5804942.251123868
853,0.0
2,3, 1, 3, 0,23, 0.00,60.00,Thursday
16,7767300.612234517
804,6224478.17520017
853,0.0
2,3, 1, 3, 0,24, 0.00,60.00,Thursday
16,7767418.428978475
804,6480852.973933716
853,0.0
3,3, 1, 3, 0,Thursday
7,1.1666666666666665,-1.0,19,60,2.775, 1,15
8,-0.6007504992247794,-2.2,13,60,1.3,24,60
9,0.3890060654580482,-1.321738782587282,19,60,2.1129291271731074, 1,15
10,14.333333333333334,0.0, 1,15,65.0,13,30
11,122.921875,0.0, 1,15,558.0,13,30
12,171.70635220439564,1.3083254005832814, 1,45,340.6669445746221,24,60
13,-20.176959693862347,-60.45738645598138, 1,45,14.6208584194948,13,45
1790,51474157.721274935,0.0, 1,15,3273431.8470796286, 9,15
2,4, 1, 4, 0, 1, 0.00,60.00,Friday
16,4566240.878071144
804,7532227.737064751
853,0.0
2,4, 1, 4, 0, 2, 0.00,60.00,Friday
16,7220925.878072616
804,8524189.183272662
853,0.0
2,4, 1, 4, 0, 3, 0.00,60.00,Friday
16,4566240.878071144
804,9046249.381803807
853,0.0
2,4, 1, 4, 0, 4, 0.00,60.00,Friday
16,4566240.878071144
804,9537780.482730076
853,0.0
2,4, 1, 4, 0, 5, 0.00,60.00,Friday
16,5953302.233001424
804,10265291.973510005
853,0.0
2,4, 1, 4, 0, 6, 0.00,60.00,Friday
16,5833282.148284262
804,10876042.210489407
853,0.0
2,4, 1, 4, 0, 7, 0.00,60.00,Friday
16,7767985.842545655
804,11396857.047191171
853,0.0
2,4, 1, 4, 0, 8, 0.00,60.00,Friday
16,7767428.345466383
804,37354007.83290373
853,0.0
2,4, 1, 4, 0, 9, 0.00,60.00,Friday
16,8797612.556835989
804,33670253.336463965
853,0.0
2,4, 1, 4, 0,10, 0.00,60.00,Friday
16,11244862.94097785
804,29732638.19745008
853,0.0
2,4, 1, 4, 0,11, 0.00,60.00,Friday
16,4566240.878071144
804,26428584.378893193
853,0.0
2,4, 1, 4, 0,12, 0.00,60.00,Friday
16,7375577.89646015
804,23975752.05222186
853,0.0
2,4, 1, 4, 0,13, 0.00,60.00,Friday
16,5127486.366017797
804,22269640.370915055
853,0.0
2,4, 1, 4, 0,14, 0.00,60.00,Friday
16,6814143.718883049
804,18956194.70210018
853,0.0
2,4, 1, 4, 0,15, 0.00,60.00,Friday
16,7375250.993385477
804,14787853.37460697
853,0.0
2,4, 1, 4, 0,16, 0.00,60.00,Friday
16,4566240.878071144
804,16691174.029116798
853,0.0
2,4, 1, 4, 0,17, 0.00,60.00,Friday
16,7375163.277791805
804,22465415.026309952
853,0.0
2,4, 1, 4, 0,18, 0.00,60.00,Friday
16,7844328.906082453
804,24269692.73690368
853,0.0
2,4, 1, 4, 0,19, 0.00,60.00,Friday
16,7843582.232544646
804,24941692.817520555
853,0.0
2,4, 1, 4, 0,20, 0.00,60.00,Friday
16,7843271.626492823
804,3646092.9831848284
853,0.0
2,4, 1, 4, 0,21, 0.00,60.00,Friday
16,8801437.99083052
804,7616304.395499569
853,0.0
2,4, 1, 4, 0,22, 0.00,60.00,Friday
16,9173593.013298154
804,8808520.775968447
853,0.0
2,4, 1, 4, 0,23, 0.00,60.00,Friday
16,8627120.904185234
804,10012637.13589841
853,0.0
2,4, 1, 4, 0,24, 0.00,60.00,Friday
16,7767384.2870358825
804,10877684.356210817
853,0.0
3,4, 1, 4, 0,Friday
7,-2.370833333333333,-5.0,23,60,0.5999999999999999, 1,15
8,-3.617708333333334,-7.7,24,60,0.3750000000000001, 1,15
9,-2.8442852708335775,-5.828734757976214,24,60,0.4861570244684519, 1,15
10,14.375,0.0, 1,15,66.0,13,30
11,129.13541666666666,0.0, 1,15,576.0,13,30
12,171.60081020210077,1.0940828941618326, 1,45,340.50922888156305,24,60
13,-20.09265613455602,-60.36138875158809, 1,45,14.71905019080346,13,45
1790,53815648.02735638,0.0, 1,15,3273445.0994606735, 9,30
2,5, 1, 5, 0, 1, 0.00,60.00,Saturday
16,4566240.878071144
804,11268491.819707692
853,0.0
2,5, 1, 5, 0, 2, 0.00,60.00,Saturday
16,4566240.878071144
804,11691620.935869655
853,0.0
2,5, 1, 5, 0, 3, 0.00,60.00,Saturday
16,5740904.026302105
804,12307623.648319889
853,0.0
2,5, 1, 5, 0, 4, 0.00,60.00,Saturday
16,6045691.256351011
804,12880530.952467524
853,0.0
2,5, 1, 5, 0, 5, 0.00,60.00,Saturday
16,4566240.878071144
804,13360979.330482487
853,0.0
2,5, 1, 5, 0, 6, 0.00,60.00,Saturday
16,4566240.878071144
804,13849725.4964566
853,0.0
2,5, 1, 5, 0, 7, 0.00,60.00,Saturday
16,7767285.463739807
804,14306862.019019444
853,0.0
2,5, 1, 5, 0, 8, 0.00,60.00,Saturday
16,8582619.939751647
804,41724185.18689605
853,0.0
2,5, 1, 5, 0, 9, 0.00,60.00,Saturday
16,10914719.06496
804,37821853.982478075
853,0.0
2,5, 1, 5, 0,10, 0.00,60.00,Saturday
16,8202352.108682378
804,33988772.07513781
853,0.0
2,5, 1, 5, 0,11, 0.00,60.00,Saturday
16,7375787.180874848
804,30888661.674756642
853,0.0
2,5, 1, 5, 0,12, 0.00,60.00,Saturday
16,4566240.878071144
804,28595430.20998162
853,0.0
2,5, 1, 5, 0,13, 0.00,60.00,Saturday
16,7375810.861115186
804,27014017.003578488
853,0.0
2,5, 1, 5, 0,14, 0.00,60.00,Saturday
16,7375636.847646613
804,23505339.43722057
853,0.0
2,5, 1, 5, 0,15, 0.00,60.00,Saturday
16,4566240.878071144
804,19288825.36295165
853,0.0
2,5, 1, 5, 0,16, 0.00,60.00,Saturday
16,7375434.675996665
804,21069281.478864226
853,0.0
2,5, 1, 5, 0,17, 0.00,60.00,Saturday
16,4566240.878071144
804,25882649.276175722
853,0.0
2,5, 1, 5, 0,18, 0.00,60.00,Saturday
16,8711627.69152902
804,27137131.3294994
853,0.0
2,5, 1, 5, 0,19, 0.00,60.00,Saturday
16,10181039.244152471
804,27228834.32198604
853,0.0
2,5, 1, 5, 0,20, 0.00,60.00,Saturday
16,7916351.185482107
804,4077935.115595335
853,0.0
2,5, 1, 5, 0,21, 0.00,60.00,Saturday
16,7844259.048414959
804,7605428.137331115
853,0.0
2,5, 1, 5, 0,22, 0.00,60.00,Saturday
16,7767287.256188116
804,8500065.38517473
853,0.0
2,5, 1, 5, 0,23, 0.00,60.00,Saturday
16,7767439.3160934765
804,9215934.67829547
853,0.0
2,5, 1, 5, 0,24, 0.00,60.00,Saturday
16,7768051.095203703
804,9831611.048577076
853,0.0
3,5, 1, 5, 0,Saturday
7,-4.088541666666665,-5.5, 7,60,-2.8,13,60
8,-7.080208333333332,-7.45, 1,15,-6.7, 1,60
9,-5.141229228510597,-6.135298049949361, 7,60,-4.298956651781032,13,60
10,14.5703125,0.0, 1,15,65.0,13,30
11,132.4921875,0.0, 1,15,603.0,13,30
12,171.49660012976298,0.8835410953785034, 1,45,340.35825202416595,24,60
13,-20.001856138640335,-60.257633494339274, 1,45,14.82458830946985,13,45
1790,51377581.2017472,0.0, 1,15,2950216.353309433,21,45
2,6, 1, 6, 0, 1, 0.00,60.00,Sunday
16,6785970.368388919
804,10337119.322795743
853,0.0
2,6, 1, 6, 0, 2, 0.00,60.00,Sunday
16,5000853.574314665
804,10796599.69758221
853,0.0
2,6, 1, 6, 0, 3, 0.00,60.00,Sunday
16,4566240.878071144
804,11175823.510339584
853,0.0
2,6, 1, 6, 0, 4, 0.00,60.00,Sunday
16,4566240.878071144
804,11454918.7611023
853,0.0
2,6, 1, 6, 0, 5, 0.00,60.00,Sunday
16,7220939.322861209
804,11714362.776720967
853,0.0
2,6, 1, 6, 0, 6, 0.00,60.00,Sunday
16,4566240.878071144
804,11923064.762987832
853,0.0
2,6, 1, 6, 0, 7, 0.00,60.00,Sunday
16,7767404.884284498
804,12126704.507045342
853,0.0
2,6, 1, 6, 0, 8, 0.00,60.00,Sunday
16,7767310.146578092
804,38591156.468308605
853,0.0
2,6, 1, 6, 0, 9, 0.00,60.00,Sunday
16,9791168.278868245
804,34922725.30464868
853,0.0
2,6, 1, 6, 0,10, 0.00,60.00,Sunday
16,10249900.424965927
804,31786667.54147021
853,0.0
2,6, 1, 6, 0,11, 0.00,60.00,Sunday
16,4566240.878071144
804,29068194.489852153
853,0.0
2,6, 1, 6, 0,12, 0.00,60.00,Sunday
16,7375748.2834825395
804,26811103.750962887
853,0.0
2,6, 1, 6, 0,13, 0.00,60.00,Sunday
16,7375772.021244707
804,25548825.027881034
853,0.0
2,6, 1, 6, 0,14, 0.00,60.00,Sunday
16,4566240.878071144
804,24765831.4449371
853,0.0
2,6, 1, 6, 0,15, 0.00,60.00,Sunday
16,7375795.722608151
804,24014260.202518906
853,0.0
2,6, 1, 6, 0,16, 0.00,60.00,Sunday
16,4566240.878071144
804,24331679.039862983
853,0.0
2,6, 1, 6, 0,17, 0.00,60.00,Sunday
16,7375792.617096576
804,25049133.092965636
853,0.0
2,6, 1, 6, 0,18, 0.00,60.00,Sunday
16,7843491.603848671
804,24798933.83396745
853,0.0
2,6, 1, 6, 0,19, 0.00,60.00,Sunday
16,7844273.85222559
804,24284086.814669997
853,0.0
2,6, 1, 6, 0,20, 0.00,60.00,Sunday
16,7843256.27448483
804,2354142.444023398
853,0.0
2,6, 1, 6, 0,21, 0.00,60.00,Sunday
16,10133893.40287779
804,5361517.62151112
853,0.0
2,6, 1, 6, 0,22, 0.00,60.00,Sunday
16,8732353.003622584
804,6205487.232011349
853,0.0
2,6, 1, 6, 0,23, 0.00,60.00,Sunday
16,7767437.804657226
804,6845142.266499046
853,0.0
2,6, 1, 6, 0,24, 0.00,60.00,Sunday
16,7767288.486108683
804,7375319.327480495
853,0.0
3,6, 1, 6, 0,Sunday
7,-3.4229166666666675,-4.6, 7,60,-2.4,19,60
8,-4.572395833333333,-7.1, 1,15,-3.0,24,60
9,-3.8650041755420497,-4.887844760743663, 2,60,-2.6504321491632616,24,60
10,16.927083333333332,0.0, 1,15,89.0,12,30
11,4.8203125,0.0, 1,15,29.0,15,30
12,171.39382734271808,0.676999179191866, 1,45,340.21418969258576,24,60
13,-19.90459616452433,-60.14617945944964, 1,45,14.937429352245028,13,45
1790,53843682.84051449,0.0, 1,15,2950320.059387931,21,15
2,7, 1, 7, 0, 1, 0.00,60.00,Monday
16,4566240.878071144
804,7846504.353262311
853,0.0
2,7, 1, 7, 0, 2, 0.00,60.00,Monday
16,4566240.878071144
804,8438519.222196328
853,0.0
2,7, 1, 7, 0, 3, 0.00,60.00,Monday
16,7220905.3795578275
804,9357273.109119626
853,0.0
2,7, 1, 7, 0, 4, 0.00,60.00,Monday
16,4566240.878071144
804,10424715.873588078
853,0.0
2,7, 1, 7, 0, 5, 0.00,60.00,Monday
16,4566240.878071144
804,11751424.269242339
853,0.0
2,7, 1, 7, 0, 6, 0.00,60.00,Monday
16,4566240.878071144
804,12805478.288888238
853,0.0
2,7, 1, 7, 0, 7, 0.00,60.00,Monday
16,8467854.529166846
804,13885646.895063154
853,0.0
2,7, 1, 7, 0, 8, 0.00,60.00,Monday
16,9174842.420807533
804,41116515.39484509
853,0.0
2,7, 1, 7, 0, 9, 0.00,60.00,Monday
16,9447370.271971688
804,36782682.532444075
853,0.0
2,7, 1, 7, 0,10, 0.00,60.00,Monday
16,8218608.131537258
804,32766411.998914283
853,0.0
2,7, 1, 7, 0,11, 0.00,60.00,Monday
16,7363825.367807452
804,29253369.416559834
853,0.0
2,7, 1, 7, 0,12, 0.00,60.00,Monday
16,7375568.90545561
804,26354668.841946535
853,0.0
2,7, 1, 7, 0,13, 0.00,60.00,Monday
16,4566240.878071144
804,24382029.25049446
853,0.0
2,7, 1, 7, 0,14, 0.00,60.00,Monday
16,7375382.347561134
804,21350663.08173406
853,0.0
2,7, 1, 7, 0,15, 0.00,60.00,Monday
16,4566240.878071144
804,18394619.42234394
853,0.0
2,7, 1, 7, 0,16, 0.00,60.00,Monday
16,7375246.266662633
804,19870270.711301655
853,0.0
2,7, 1, 7, 0,17, 0.00,60.00,Monday
16,5700947.541796856
804,24186882.16190106
853,0.0
2,7, 1, 7, 0,18, 0.00,60.00,Monday
16,9800760.047411796
804,25256660.81137129
853,0.0
2,7, 1, 7, 0,19, 0.00,60.00,Monday
16,7843453.337474278
804,25253255.649977416
853,0.0
2,7, 1, 7, 0,20, 0.00,60.00,Monday
16,7843569.67288184
804,3064339.8733904697
853,0.0
2,7, 1, 7, 0,21, 0.00,60.00,Monday
16,7843524.920512436
804,6203173.989877904
853,0.0
2,7, 1, 7, 0,22, 0.00,60.00,Monday
16,7768096.71975611
804,7002789.209592299
853,0.0
2,7, 1, 7, 0,23, 0.00,60.00,Monday
16,7767229.748039219
804,7765476.712799918
853,0.0
2,7, 1, 7, 0,24, 0.00,60.00,Monday
16,7767575.951539628
804,8432534.91371663
853,0.0
3,7, 1, 7, 0,Monday
7,-5.505729166666664,-11.1, 7,60,-2.3,24,60
8,-6.389583333333333,-12.1, 7,60,-2.9, 1,60
9,-5.813797856992925,-11.366139782034363, 7,60,-2.600129425188394, 1,60
10,18.200520833333332,0.0, 1,15,84.0,12,30
11,80.8359375,0.0, 1,15,390.0,13,30
12,171.29259514926343,0.4747425056558858, 1,45,340.0772010768144,24,60
13,-19.800915512093123,-60.02709001319141, 1,45,15.057526730624629,13,45
1790,51055799.96945763,0.0, 1,15,3260329.5068747103,10,30
2,8, 1, 8, 0, 1, 0.00,60.00,Tuesday
16,7220941.761130347
804,9047715.690145636
853,0.0
2,8, 1, 8, 0, 2, 0.00,60.00,Tuesday
16,4566240.878071144
804,9531920.195438314
853,0.0
2,8, 1, 8, 0, 3, 0.00,60.00,Tuesday
16,4566240.878071144
804,9941606.212041436
853,0.0
2,8, 1, 8, 0, 4, 0.00,60.00,Tuesday
16,7220413.554385006
804,10471340.438372329
853,0.0
2,8, 1, 8, 0, 5, 0.00,60.00,Tuesday
16,4566240.878071144
804,10852083.95855572
853,0.0
2,8, 1, 8, 0, 6, 0.00,60.00,Tuesday
16,4566240.878071144
804,11112509.04101415
853,0.0
2,8, 1, 8, 0, 7, 0.00,60.00,Tuesday
16,7768042.210320637
804,11368922.655677103
853,0.0
2,8, 1, 8, 0, 8, 0.00,60.00,Tuesday
16,7767405.909323421
804,37152254.228049085
853,0.0
2,8, 1, 8, 0, 9, 0.00,60.00,Tuesday
16,11839728.303116621
804,33263019.23390773
853,0.0
2,8, 1, 8, 0,10, 0.00,60.00,Tuesday
16,8203327.030751824
804,30118187.54705193
853,0.0
2,8, 1, 8, 0,11, 0.00,60.00,Tuesday
16,7375126.21131045
804,27935460.031170785
853,0.0
2,8, 1, 8, 0,12, 0.00,60.00,Tuesday
16,4566240.878071144
804,26319168.900943913
853,0.0
2,8, 1, 8, 0,13, 0.00,60.00,Tuesday
16,7375163.940848957
804,25283640.380930375
853,0.0
2,8, 1, 8, 0,14, 0.00,60.00,Tuesday
16,4566240.878071144
804,24859447.87722544
853,0.0
2,8, 1, 8, 0,15, 0.00,60.00,Tuesday
16,7375252.284072468
804,24371261.100935914
853,0.0
2,8, 1, 8, 0,16, 0.00,60.00,Tuesday
16,6949572.727486594
804,24092064.28230296
853,0.0
2,8, 1, 8, 0,17, 0.00,60.00,Tuesday
16,4992059.43647612
804,23973429.320847154
853,0.0
2,8, 1, 8, 0,18, 0.00,60.00,Tuesday
16,7844377.276875046
804,23547252.2098134
853,0.0
2,8, 1, 8, 0,19, 0.00,60.00,Tuesday
16,8261349.930531234
804,23009732.736833088
853,0.0
2,8, 1, 8, 0,20, 0.00,60.00,Tuesday
16,10180980.390169438
804,1499138.6787911416
853,0.0
2,8, 1, 8, 0,21, 0.00,60.00,Tuesday
16,8365567.36205483
804,3792832.7249550647
853,0.0
2,8, 1, 8, 0,22, 0.00,60.00,Tuesday
16,7767335.9557170365
804,4097576.984224075
853,0.0
2,8, 1, 8, 0,23, 0.00,60.00,Tuesday
16,7768007.387783267
804,4563990.890840119
853,0.0
2,8, 1, 8, 0,24, 0.00,60.00,Tuesday
16,7767374.67806348
804,5107924.951497197
853,0.0
3,8, 1, 8, 0,Tuesday
7,0.33385416666666695,-2.25, 1,15,4.0,23,60
8,-0.19583404686953979,-3.6, 7,60,4.0,23,60
9,0.1188314416176298,-2.7575005134912995, 7,60,4.0,23,60
10,6.432291666666667,0.0, 1,15,34.0,12,30
11,0.3151041666666667,0.0, 1,15,7.0,10,30
12,171.19300465716188,0.2770419467789127, 1,45,339.9474288361953,24,60
13,-19.69085628613162,-59.900432936670626, 1,45,15.184830734836614,13,45
1790,53864721.49062257,0.0, 1,30,3273295.2830816275, 9,60
2,9, 1, 9, 0, 1, 0.00,60.00,Wednesday
16,4566240.878071144
804,5556844.006129094
853,0.0
2,9, 1, 9, 0, 2, 0.00,60.00,Wednesday
16,7220681.097125318
804,6397491.447206297
853,0.0
2,9, 1, 9, 0, 3, 0.00,60.00,Wednesday
16,4566240.878071144
804,7361018.875725361
853,0.0
2,9, 1, 9, 0, 4, 0.00,60.00,Wednesday
16,4566240.878071144
804,7801136.150726847
853,0.0
2,9, 1, 9, 0, 5, 0.00,60.00,Wednesday
16,4566240.878071144
804,7709946.765113421
853,0.0
2,9, 1, 9, 0, 6, 0.00,60.00,Wednesday
16,7220583.294263242
804,7300245.164820827
853,0.0
2,9, 1, 9, 0, 7, 0.00,60.00,Wednesday
16,7767242.460621775
804,7151801.15383219
853,0.0
2,9, 1, 9, 0, 8, 0.00,60.00,Wednesday
16,7767947.914495203
804,31449283.130651828
853,0.0
2,9, 1, 9, 0, 9, 0.00,60.00,Wednesday
16,8202764.823345438
804,28476706.92290453
853,0.0
2,9, 1, 9, 0,10, 0.00,60.00,Wednesday
16,11840287.876140326
804,24818913.978195697
853,0.0
2,9, 1, 9, 0,11, 0.00,60.00,Wednesday
16,4566240.878071144
804,21633605.67020914
853,0.0
2,9, 1, 9, 0,12, 0.00,60.00,Wednesday
16,7375174.329869269
804,19265767.295374103
853,0.0
2,9, 1, 9, 0,13, 0.00,60.00,Wednesday
16,4566240.878071144
804,17972377.856868763
853,0.0
2,9, 1, 9, 0,14, 0.00,60.00,Wednesday
16,7375128.758403458
804,17359970.852422167
853,0.0
2,9, 1, 9, 0,15, 0.00,60.00,Wednesday
16,6204586.251681265
804,17971616.327057682
853,0.0
2,9, 1, 9, 0,16, 0.00,60.00,Wednesday
16,5736788.364364618
804,18969386.866286814
853,0.0
2,9, 1, 9, 0,17, 0.00,60.00,Wednesday
16,7375189.303165827
804,19526303.23826909
853,0.0
2,9, 1, 9, 0,18, 0.00,60.00,Wednesday
16,7843806.113141396
804,20607696.229258217
853,0.0
2,9, 1, 9, 0,19, 0.00,60.00,Wednesday
16,7843654.541383128
804,24019831.416515555
853,0.0
2,9, 1, 9, 0,20, 0.00,60.00,Wednesday
16,7843285.557677284
804,462734.34536856273
853,0.0
2,9, 1, 9, 0,21, 0.00,60.00,Wednesday
16,7843492.429070197
804,1962962.3810149594
853,0.0
2,9, 1, 9, 0,22, 0.00,60.00,Wednesday
16,8625498.854241148
804,2208742.6321205096
853,0.0
2,9, 1, 9, 0,23, 0.00,60.00,Wednesday
16,9173602.094789268
804,2434044.792438808
853,0.0
2,9, 1, 9, 0,24, 0.00,60.00,Wednesday
16,8705354.39562077
804,2728582.004590048
853,0.0
3,9, 1, 9, 0,Wednesday
7,4.736458333333332,2.1, 3,60,7.6,23,60
8,4.126040580561692,1.9, 1,60,5.999997196412721,13,60
9,4.590807866781274,2.0999984741210938, 3,60,6.748006875248453,23,60
10,18.317708333333332,0.0, 1,15,94.0,12,30
11,18.375,0.0, 1,15,158.0,13,30
12,171.0951546233548,0.08415330395139851, 1,45,339.824999142154,24,60
13,-19.574463356569648,-59.76628024130013, 1,45,15.319288581092687,13,45
1790,53795459.3887065,0.0, 1,15,3273308.158215248,10,15
2,10, 1,10, 0, 1, 0.00,60.00,Thursday
16,4566240.878071144
804,3609867.230351299
853,0.0
2,10, 1,10, 0, 2, 0.00,60.00,Thursday
16,4566240.878071144
804,3874373.4200946814
853,0.0
2,10, 1,10, 0, 3, 0.00,60.00,Thursday
16,4566240.878071144
804,5101825.341202848
853,0.0
2,10, 1,10, 0, 4, 0.00,60.00,Thursday
16,7220797.7894605175
804,6003704.4380820505
853,0.0
2,10, 1,10, 0, 5, 0.00,60.00,Thursday
16,4566240.878071144
804,6395863.366312918
853,0.0
2,10, 1,10, 0, 6, 0.00,60.00,Thursday
16,4566240.878071144
804,6670598.459003712
853,0.0
2,10, 1,10, 0, 7, 0.00,60.00,Thursday
16,7767481.218530929
804,6939245.18227127
853,0.0
2,10, 1,10, 0, 8, 0.00,60.00,Thursday
16,7767043.936579285
804,30467692.189106543
853,0.0
2,10, 1,10, 0, 9, 0.00,60.00,Thursday
16,11840254.434172593
804,28369757.22661138
853,0.0
2,10, 1,10, 0,10, 0.00,60.00,Thursday
16,8202706.433072243
804,25488238.108928632
853,0.0
2,10, 1,10, 0,11, 0.00,60.00,Thursday
16,7375778.068789998
804,22379270.942198448
853,0.0
2,10, 1,10, 0,12, 0.00,60.00,Thursday
16,4566240.878071144
804,19979470.05178518
853,0.0
2,10, 1,10, 0,13, 0.00,60.00,Thursday
16,7375801.760884283
804,18707244.08713755
853,0.0
2,10, 1,10, 0,14, 0.00,60.00,Thursday
16,4664075.622565179
804,17464119.92957448
853,0.0
2,10, 1,10, 0,15, 0.00,60.00,Thursday
16,7277893.268953092
804,17536370.030515682
853,0.0
2,10, 1,10, 0,16, 0.00,60.00,Thursday
16,7375506.436874469
804,19029879.936760128
853,0.0
2,10, 1,10, 0,17, 0.00,60.00,Thursday
16,4566240.878071144
804,19961857.65481901
853,0.0
2,10, 1,10, 0,18, 0.00,60.00,Thursday
16,7843664.6693249345
804,20579024.084348343
853,0.0
2,10, 1,10, 0,19, 0.00,60.00,Thursday
16,9206418.50058994
804,20660428.46117279
853,0.0
2,10, 1,10, 0,20, 0.00,60.00,Thursday
16,9758323.835721655
804,811146.7006807744
853,0.0
2,10, 1,10, 0,21, 0.00,60.00,Thursday
16,7843454.754165441
804,3182193.960634945
853,0.0
2,10, 1,10, 0,22, 0.00,60.00,Thursday
16,7767931.715739811
804,3957464.9385140454
853,0.0
2,10, 1,10, 0,23, 0.00,60.00,Thursday
16,7767593.366776128
804,4383109.712575717
853,0.0
2,10, 1,10, 0,24, 0.00,60.00,Thursday
16,7767225.602076109
804,4488084.651816196
853,0.0
3,10, 1,10, 0,Thursday
7,4.616666666666666,2.7,23,60,7.5249999999999995, 1,15
8,2.0005208333333333,0.2, 7,60,5.3999999999999995, 1,15
9,3.6733112254525153,2.509699567522247,23,60,6.459245160919081, 1,15
10,18.4375,0.0, 1,15,91.0,13,30
11,35.565104166666664,0.0, 1,15,199.0,10,30
12,171.00130137365522,0.1036831833804491, 1,45,339.71002178991677,24,60
13,-19.451784315637955,-59.624707977317236, 1,45,15.460844461957508,13,45
1790,51476270.83836045,0.0, 1,15,3273321.3208426773, 9,15
2,11, 1,11, 0, 1, 0.00,60.00,Friday
16,4566240.878071144
804,4614726.422315555
853,0.0
2,11, 1,11, 0, 2, 0.00,60.00,Friday
16,7220374.696211519
804,5067509.876629723
853,0.0
2,11, 1,11, 0, 3, 0.00,60.00,Friday
16,4566240.878071144
804,5711122.969656855
853,0.0
2,11, 1,11, 0, 4, 0.00,60.00,Friday
16,4566240.878071144
804,6502447.312826962
853,0.0
2,11, 1,11, 0, 5, 0.00,60.00,Friday
16,4566240.878071144
804,7267872.653847698
853,0.0
2,11, 1,11, 0, 6, 0.00,60.00,Friday
16,7220896.889668701
804,7665375.411873869
853,0.0
2,11, 1,11, 0, 7, 0.00,60.00,Friday
16,7767803.380311093
804,7692916.287363344
853,0.0
2,11, 1,11, 0, 8, 0.00,60.00,Friday
16,7767823.556399135
804,31322218.64843497
853,0.0
2,11, 1,11, 0, 9, 0.00,60.00,Friday
16,8413665.329002071
804,28880306.92899961
853,0.0
2,11, 1,11, 0,10, 0.00,60.00,Friday
16,11629232.214009617
804,25790216.5415747
853,0.0
2,11, 1,11, 0,11, 0.00,60.00,Friday
16,4566240.878071144
804,22702492.86522153
853,0.0
2,11, 1,11, 0,12, 0.00,60.00,Friday
16,7375739.139473817
804,20845595.895224616
853,0.0
2,11, 1,11, 0,13, 0.00,60.00,Friday
16,4566240.878071144
804,19619223.999078214
853,0.0
2,11, 1,11, 0,14, 0.00,60.00,Friday
16,7375762.891263599
804,17392277.162503228
853,0.0
2,11, 1,11, 0,15, 0.00,60.00,Friday
16,7375786.606623653
804,14476162.615964528
853,0.0
2,11, 1,11, 0,16, 0.00,60.00,Friday
16,4566240.878071144
804,15883838.458242038
853,0.0
2,11, 1,11, 0,17, 0.00,60.00,Friday
16,7375810.287323353
804,19984345.26285863
853,0.0
2,11, 1,11, 0,18, 0.00,60.00,Friday
16,7844282.587877455
804,20897861.38510796
853,0.0
2,11, 1,11, 0,19, 0.00,60.00,Friday
16,7843458.738526373
804,21004662.653448746
853,0.0
2,11, 1,11, 0,20, 0.00,60.00,Friday
16,7843265.028537437
804,1190191.609159861
853,0.0
2,11, 1,11, 0,21, 0.00,60.00,Friday
16,8287062.402687101
804,3882954.0153664444
853,0.0
2,11, 1,11, 0,22, 0.00,60.00,Friday
16,9173733.340496937
804,4633735.07956339
853,0.0
2,11, 1,11, 0,23, 0.00,60.00,Friday
16,9129408.657135826
804,5409198.710518578
853,0.0
2,11, 1,11, 0,24, 0.00,60.00,Friday
16,7767701.5916029615
804,5828510.186616241
853,0.0
3,11, 1,11, 0,Friday
7,3.1302083333333326,2.1,23,60,4.4,15,60
8,1.0171875000000001,0.1, 7,60,2.4, 3,60
9,2.372332722381356,1.54409270954401,23,60,3.567697330803043, 1,60
10,16.3828125,0.0, 1,15,76.0,13,30
11,100.76822916666667,0.0, 1,15,475.0,13,30
12,170.9110217294324,0.2862432384600441, 1,45,339.602590374645,24,60
13,-19.322869432033745,-59.47579603669277, 1,45,15.609439599683608,13,45
1790,53807141.16894708,0.0, 1,15,3273334.7472984446, 9,30
2,12, 1,12, 0, 1, 0.00,60.00,Saturday
16,4566240.878071144