Program Version,EnergyPlus, Version 23.2.0-7636e6b3e9, YMD=2025.01.26 21:48
1,5,Environment Title[],Latitude[deg],Longitude[deg],Time Zone[],Elevation[m]
2,8,Day of Simulation[],Month[],Day of Month[],DST Indicator[1=yes 0=no],Hour[],StartMinute[],EndMinute[],DayType
3,5,Cumulative Day of Simulation[],Month[],Day of Month[],DST Indicator[1=yes 0=no],DayType  ! When Daily Report Variables Requested
4,2,Cumulative Days of Simulation[],Month[]  ! When Monthly Report Variables Requested
5,1,Cumulative Days of Simulation[] ! When Run Period Report Variables Requested
6,1,Calendar Year of Simulation[] ! When Annual Report Variables Requested
7,7,Environment,Site Outdoor Air Drybulb Temperature [C] !Daily [Value,Min,Hour,Minute,Max,Hour,Minute]
8,7,Environment,Site Outdoor Air Dewpoint Temperature [C] !Daily [Value,Min,Hour,Minute,Max,Hour,Minute]
9,7,Environment,Site Outdoor Air Wetbulb Temperature [C] !Daily [Value,Min,Hour,Minute,Max,Hour,Minute]
10,7,Environment,Site Diffuse Solar Radiation Rate per Area [W/m2] !Daily [Value,Min,Hour,Minute,Max,Hour,Minute]
11,7,Environment,Site Direct Solar Radiation Rate per Area [W/m2] !Daily [Value,Min,Hour,Minute,Max,Hour,Minute]
12,7,Environment,Site Solar Azimuth Angle [deg] !Daily [Value,Min,Hour,Minute,Max,Hour,Minute]
13,7,Environment,Site Solar Altitude Angle [deg] !Daily [Value,Min,Hour,Minute,Max,Hour,Minute]
993,7,MYDHW_0_WATERHEATER,Water Heater Heating Energy [J] !Daily [Value,Min,Hour,Minute,Max,Hour,Minute]
469,1,Heating:EnergyTransfer [J] !Hourly
518,1,Cooling:EnergyTransfer [J] !Hourly
16,1,Electricity:Facility [J] !Hourly
End of Data Dictionary
1,RUN PERIOD 1,  52.46,   5.52,   1.00,  -3.90
2,1, 1, 1, 0, 1, 0.00,60.00,Tuesday
16,1712339.9184327582
469,4088130.4653769787
518,0.0
2,1, 1, 1, 0, 2, 0.00,60.00,Tuesday
16,1712339.9184327582
469,4307784.564853815
518,0.0
2,1, 1, 1, 0, 3, 0.00,60.00,Tuesday
16,1712339.9184327582
469,4524856.601364793
518,0.0
2,1, 1, 1, 0, 4, 0.00,60.00,Tuesday
16,4366798.154495369
469,4755556.632250407
518,0.0
2,1, 1, 1, 0, 5, 0.00,60.00,Tuesday
16,1712339.9184327582
469,4949697.99241288
518,0.0
2,1, 1, 1, 0, 6, 0.00,60.00,Tuesday
16,1712339.9184327582
469,5147782.642427468
518,0.0
2,1, 1, 1, 0, 7, 0.00,60.00,Tuesday
16,4614360.8506907625
469,6202484.55400314
518,0.0
2,1, 1, 1, 0, 8, 0.00,60.00,Tuesday
16,4615035.190281886
469,17441743.15256567
518,0.0
2,1, 1, 1, 0, 9, 0.00,60.00,Tuesday
16,4700824.655157049
469,16529137.781432876
518,0.0
2,1, 1, 1, 0,10, 0.00,60.00,Tuesday
16,3877910.3187464033
469,13805909.553136598
518,0.0
2,1, 1, 1, 0,11, 0.00,60.00,Tuesday
16,2585313.4296195526
469,12305312.42910253
518,0.0
2,1, 1, 1, 0,12, 0.00,60.00,Tuesday
16,1712339.9184327582
469,11958911.382517224
518,0.0
2,1, 1, 1, 0,13, 0.00,60.00,Tuesday
16,4441839.509947016
469,11958693.570382576
518,0.0
2,1, 1, 1, 0,14, 0.00,60.00,Tuesday
16,1712339.9184327582
469,12193795.497964129
518,0.0
2,1, 1, 1, 0,15, 0.00,60.00,Tuesday
16,4442248.12220361
469,12105683.660204794
518,0.0
2,1, 1, 1, 0,16, 0.00,60.00,Tuesday
16,1712339.9184327582
469,12713810.905008763
518,0.0
2,1, 1, 1, 0,17, 0.00,60.00,Tuesday
16,4097644.0877712313
469,13884531.259830832
518,0.0
2,1, 1, 1, 0,18, 0.00,60.00,Tuesday
16,2082877.9564683565
469,14101684.619710432
518,0.0
2,1, 1, 1, 0,19, 0.00,60.00,Tuesday
16,4645261.732844571
469,13956477.485024456
518,0.0
2,1, 1, 1, 0,20, 0.00,60.00,Tuesday
16,4645374.09510968
469,2702864.990656537
518,0.0
2,1, 1, 1, 0,21, 0.00,60.00,Tuesday
16,4645709.093814084
469,4360166.641287098
518,0.0
2,1, 1, 1, 0,22, 0.00,60.00,Tuesday
16,1712339.9184327582
469,4551202.938139524
518,0.0
2,1, 1, 1, 0,23, 0.00,60.00,Tuesday
16,4614628.626222127
469,3874683.6451372216
518,0.0
2,1, 1, 1, 0,24, 0.00,60.00,Tuesday
16,4614702.22369091
469,3985461.3833540697
518,0.0
3,1, 1, 1, 0,Tuesday
7,2.891666666666666,1.4,16,60,4.2, 1,60
8,-0.03749999999999998,-2.5,10,60,2.1,24,60
9,1.854739388525906,0.4001495373206364,13,60,3.0998073170807516, 1,60
10,17.307291666666668,0.0, 1,15,86.0,12,30
11,26.854166666666668,0.0, 1,15,152.0,10,30
12,171.9210012821981,1.7466514206994332, 1,45,341.00180793165543,24,60
13,-20.325946072972584,-60.625898049216175, 1,45,14.446671545683287,13,45
993,33574886.34351411,0.0, 1,15,2689636.263051862, 9,60
2,2, 1, 2, 0, 1, 0.00,60.00,Wednesday
16,1712339.9184327582
469,4543661.401341506
518,0.0
2,2, 1, 2, 0, 2, 0.00,60.00,Wednesday
16,1712339.9184327582
469,4816480.262880972
518,0.0
2,2, 1, 2, 0, 3, 0.00,60.00,Wednesday
16,4366617.793135026
469,4916979.517907832
518,0.0
2,2, 1, 2, 0, 4, 0.00,60.00,Wednesday
16,1712339.9184327582
469,5194877.221512006
518,0.0
2,2, 1, 2, 0, 5, 0.00,60.00,Wednesday
16,1712339.9184327582
469,5196641.169717681
518,0.0
2,2, 1, 2, 0, 6, 0.00,60.00,Wednesday
16,1712339.9184327582
469,5205915.3287350545
518,0.0
2,2, 1, 2, 0, 7, 0.00,60.00,Wednesday
16,4614989.391553057
469,6149628.333064359
518,0.0
2,2, 1, 2, 0, 8, 0.00,60.00,Wednesday
16,4614311.17954757
469,17081812.508966155
518,0.0
2,2, 1, 2, 0, 9, 0.00,60.00,Wednesday
16,4781361.280575324
469,15712941.729933986
518,0.0
2,2, 1, 2, 0,10, 0.00,60.00,Wednesday
16,4780808.921130945
469,13365713.411148041
518,0.0
2,2, 1, 2, 0,11, 0.00,60.00,Wednesday
16,1712339.9184327582
469,11079574.547860257
518,0.0
2,2, 1, 2, 0,12, 0.00,60.00,Wednesday
16,4441647.055934573
469,9071198.031550623
518,0.0
2,2, 1, 2, 0,13, 0.00,60.00,Wednesday
16,1712339.9184327582
469,7618179.246638907
518,0.0
2,2, 1, 2, 0,14, 0.00,60.00,Wednesday
16,1732205.1111269374
469,6465460.431970248
518,0.0
2,2, 1, 2, 0,15, 0.00,60.00,Wednesday
16,4422401.13851984
469,5762382.594156864
518,0.0
2,2, 1, 2, 0,16, 0.00,60.00,Wednesday
16,1712339.9184327582
469,7389669.88510027
518,0.0
2,2, 1, 2, 0,17, 0.00,60.00,Wednesday
16,4442211.903955843
469,9749641.297545254
518,0.0
2,2, 1, 2, 0,18, 0.00,60.00,Wednesday
16,4210572.643856118
469,10763073.492645573
518,0.0
2,2, 1, 2, 0,19, 0.00,60.00,Wednesday
16,2147290.082411384
469,11491274.41925339
518,0.0
2,2, 1, 2, 0,20, 0.00,60.00,Wednesday
16,4645000.228166422
469,1555643.549814559
518,0.0
2,2, 1, 2, 0,21, 0.00,60.00,Wednesday
16,4645330.208488716
469,3444323.0240689404
518,0.0
2,2, 1, 2, 0,22, 0.00,60.00,Wednesday
16,4614982.946723965
469,3829235.8387168376
518,0.0
2,2, 1, 2, 0,23, 0.00,60.00,Wednesday
16,1712339.9184327582
469,3260080.4068054324
518,0.0
2,2, 1, 2, 0,24, 0.00,60.00,Wednesday
16,4614312.570122317
469,3633418.0941498317
518,0.0
3,2, 1, 2, 0,Wednesday
7,3.686458333333334,2.7,19,60,4.7,15,60
8,0.859375,-2.5,24,60,3.0, 8,60
9,2.7411140405471186,1.1746816380023941, 1,60,3.8128607493951674, 8,60
10,16.630208333333332,0.0, 1,15,76.0,12,30
11,62.854166666666664,0.0, 1,15,310.0,15,30
12,171.8131188905313,1.5259563868488346, 1,45,340.83120702053344,24,60
13,-20.25473323294449,-60.545572589949266, 1,45,14.530053212951353,13,45
993,33650049.310881004,0.0, 1,15,2756705.5482596625, 9,45
2,3, 1, 3, 0, 1, 0.00,60.00,Thursday
16,1712339.9184327582
469,3894121.1160725756
518,0.0
2,3, 1, 3, 0, 2, 0.00,60.00,Thursday
16,4367005.136574147
469,4117859.5942499624
518,0.0
2,3, 1, 3, 0, 3, 0.00,60.00,Thursday
16,1712339.9184327582
469,4235947.946043143
518,0.0
2,3, 1, 3, 0, 4, 0.00,60.00,Thursday
16,1712339.9184327582
469,4474365.678289566
518,0.0
2,3, 1, 3, 0, 5, 0.00,60.00,Thursday
16,1712339.9184327582
469,4625869.808411689
518,0.0
2,3, 1, 3, 0, 6, 0.00,60.00,Thursday
16,4366529.579576522
469,4887237.493372469
518,0.0
2,3, 1, 3, 0, 7, 0.00,60.00,Thursday
16,2046095.9104889666
469,6399511.11283344
518,0.0
2,3, 1, 3, 0, 8, 0.00,60.00,Thursday
16,4280192.191556291
469,17288864.98818671
518,0.0
2,3, 1, 3, 0, 9, 0.00,60.00,Thursday
16,4781534.100607503
469,16217289.920112312
518,0.0
2,3, 1, 3, 0,10, 0.00,60.00,Thursday
16,4781387.423588917
469,12227000.037326682
518,0.0
2,3, 1, 3, 0,11, 0.00,60.00,Thursday
16,3329464.344391849
469,8424812.074642725
518,0.0
2,3, 1, 3, 0,12, 0.00,60.00,Thursday
16,2824527.1505788313
469,5470598.966970206
518,0.0
2,3, 1, 3, 0,13, 0.00,60.00,Thursday
16,1712339.9184327582
469,3815352.2494538845
518,0.0
2,3, 1, 3, 0,14, 0.00,60.00,Thursday
16,4441979.966427312
469,3264091.9539882364
518,0.0
2,3, 1, 3, 0,15, 0.00,60.00,Thursday
16,1712339.9184327582
469,3720941.2458252925
518,0.0
2,3, 1, 3, 0,16, 0.00,60.00,Thursday
16,4442233.805377279
469,6719968.367239801
518,0.0
2,3, 1, 3, 0,17, 0.00,60.00,Thursday
16,1712339.9184327582
469,10085139.10863815
518,0.0
2,3, 1, 3, 0,18, 0.00,60.00,Thursday
16,4645411.557939713
469,11545373.552948568
518,0.0
2,3, 1, 3, 0,19, 0.00,60.00,Thursday
16,4645935.574355265
469,12373831.807399344
518,0.0
2,3, 1, 3, 0,20, 0.00,60.00,Thursday
16,1712339.9184327582
469,2342863.8884158093
518,0.0
2,3, 1, 3, 0,21, 0.00,60.00,Thursday
16,4645917.785478278
469,4559957.239636131
518,0.0
2,3, 1, 3, 0,22, 0.00,60.00,Thursday
16,4614541.873853385
469,5062289.191291604
518,0.0
2,3, 1, 3, 0,23, 0.00,60.00,Thursday
16,4614813.468427314
469,4105197.1427116417
518,0.0
2,3, 1, 3, 0,24, 0.00,60.00,Thursday
16,1712339.9184327582
469,4227373.93614915
518,0.0
3,3, 1, 3, 0,Thursday
7,1.1666666666666665,-1.0,19,60,2.775, 1,15
8,-0.6007504992247794,-2.2,13,60,1.3,24,60
9,0.3890060654580482,-1.321738782587282,19,60,2.1129291271731074, 1,15
10,14.333333333333334,0.0, 1,15,65.0,13,30
11,122.921875,0.0, 1,15,558.0,13,30
12,171.70635220439564,1.3083254005832814, 1,45,340.6669445746221,24,60
13,-20.176959693862347,-60.45738645598138, 1,45,14.6208584194948,13,45
993,33428223.98345718,0.0, 1,15,2762274.763957271, 9,30
2,4, 1, 4, 0, 1, 0.00,60.00,Friday
16,4367002.316155919
469,4915398.093055854
518,0.0
2,4, 1, 4, 0, 2, 0.00,60.00,Friday
16,1712339.9184327582
469,5526897.826789417
518,0.0
2,4, 1, 4, 0, 3, 0.00,60.00,Friday
16,1712339.9184327582
469,5822386.123855565
518,0.0
2,4, 1, 4, 0, 4, 0.00,60.00,Friday
16,2475954.683035483
469,6108357.326819579
518,0.0
2,4, 1, 4, 0, 5, 0.00,60.00,Friday
16,3602942.9623354627
469,6512818.312688906
518,0.0
2,4, 1, 4, 0, 6, 0.00,60.00,Friday
16,1712339.9184327582
469,6871136.821017012
518,0.0
2,4, 1, 4, 0, 7, 0.00,60.00,Friday
16,4614962.056751985
469,8722220.444871968
518,0.0
2,4, 1, 4, 0, 8, 0.00,60.00,Friday
16,2990556.9849546542
469,19730861.792444095
518,0.0
2,4, 1, 4, 0, 9, 0.00,60.00,Friday
16,3876615.6691695675
469,18221687.971119776
518,0.0
2,4, 1, 4, 0,10, 0.00,60.00,Friday
16,4334843.11759145
469,13851790.5991688
518,0.0
2,4, 1, 4, 0,11, 0.00,60.00,Friday
16,4442216.30863797
469,10119562.421930889
518,0.0
2,4, 1, 4, 0,12, 0.00,60.00,Friday
16,1712339.9184327582
469,7165222.342494244
518,0.0
2,4, 1, 4, 0,13, 0.00,60.00,Friday
16,4441700.420386188
469,5275766.300251208
518,0.0
2,4, 1, 4, 0,14, 0.00,60.00,Friday
16,1712339.9184327582
469,4504790.392758363
518,0.0
2,4, 1, 4, 0,15, 0.00,60.00,Friday
16,4441840.87865371
469,5097823.515198666
518,0.0
2,4, 1, 4, 0,16, 0.00,60.00,Friday
16,1712339.9184327582
469,8217648.025639916
518,0.0
2,4, 1, 4, 0,17, 0.00,60.00,Friday
16,1712339.9184327582
469,11642736.717945417
518,0.0
2,4, 1, 4, 0,18, 0.00,60.00,Friday
16,4645962.030302871
469,13125936.663199369
518,0.0
2,4, 1, 4, 0,19, 0.00,60.00,Friday
16,4645871.252123264
469,13937133.379158627
518,0.0
2,4, 1, 4, 0,20, 0.00,60.00,Friday
16,4645478.031145799
469,4012490.6839821567
518,0.0
2,4, 1, 4, 0,21, 0.00,60.00,Friday
16,3389433.306331468
469,6848495.713467188
518,0.0
2,4, 1, 4, 0,22, 0.00,60.00,Friday
16,2954721.3749907427
469,7620663.467801146
518,0.0
2,4, 1, 4, 0,23, 0.00,60.00,Friday
16,4615005.144183835
469,6712670.805939587
518,0.0
2,4, 1, 4, 0,24, 0.00,60.00,Friday
16,4614316.488993216
469,7170214.464359144
518,0.0
3,4, 1, 4, 0,Friday
7,-2.370833333333333,-5.0,23,60,0.5999999999999999, 1,15
8,-3.617708333333334,-7.7,24,60,0.3750000000000001, 1,15
9,-2.8442852708335775,-5.828734757976214,24,60,0.4861570244684519, 1,15
10,14.375,0.0, 1,15,66.0,13,30
11,129.13541666666666,0.0, 1,15,576.0,13,30
12,171.60081020210077,1.0940828941618326, 1,45,340.50922888156305,24,60
13,-20.09265613455602,-60.36138875158809, 1,45,14.71905019080346,13,45
993,35990679.97114803,0.0, 1,15,2640259.900683102,18,15
2,5, 1, 5, 0, 1, 0.00,60.00,Saturday
16,1712339.9184327582
469,7321374.051711442
518,0.0
2,5, 1, 5, 0, 2, 0.00,60.00,Saturday
16,1712339.9184327582
469,7524460.362637155
518,0.0
2,5, 1, 5, 0, 3, 0.00,60.00,Saturday
16,2171529.5511188335
469,7879301.123147257
518,0.0
2,5, 1, 5, 0, 4, 0.00,60.00,Saturday
16,3907516.0540989544
469,8223127.442177787
518,0.0
2,5, 1, 5, 0, 5, 0.00,60.00,Saturday
16,1712339.9184327582
469,8526268.867931167
518,0.0
2,5, 1, 5, 0, 6, 0.00,60.00,Saturday
16,1712339.9184327582
469,8843966.78731848
518,0.0
2,5, 1, 5, 0, 7, 0.00,60.00,Saturday
16,4614548.439905867
469,10893117.037173698
518,0.0
2,5, 1, 5, 0, 8, 0.00,60.00,Saturday
16,4614803.587463509
469,22505248.577366225
518,0.0
2,5, 1, 5, 0, 9, 0.00,60.00,Saturday
16,4780881.804354493
469,20875434.753484033
518,0.0
2,5, 1, 5, 0,10, 0.00,60.00,Saturday
16,4781544.235300986
469,16550246.369122393
518,0.0
2,5, 1, 5, 0,11, 0.00,60.00,Saturday
16,1712339.9184327582
469,12745011.363858057
518,0.0
2,5, 1, 5, 0,12, 0.00,60.00,Saturday
16,1862991.1100128903
469,9791381.49532866
518,0.0
2,5, 1, 5, 0,13, 0.00,60.00,Saturday
16,4291502.883687612
469,7928620.42490807
518,0.0
2,5, 1, 5, 0,14, 0.00,60.00,Saturday
16,1712339.9184327582
469,7130181.2158101685
518,0.0
2,5, 1, 5, 0,15, 0.00,60.00,Saturday
16,4442219.73024195
469,7833567.576189905
518,0.0
2,5, 1, 5, 0,16, 0.00,60.00,Saturday
16,1712339.9184327582
469,10869973.230120113
518,0.0
2,5, 1, 5, 0,17, 0.00,60.00,Saturday
16,4441717.626809468
469,13862236.058834078
518,0.0
2,5, 1, 5, 0,18, 0.00,60.00,Saturday
16,1712339.9184327582
469,15088109.936556056
518,0.0
2,5, 1, 5, 0,19, 0.00,60.00,Saturday
16,4645968.152376443
469,15597165.976288585
518,0.0
2,5, 1, 5, 0,20, 0.00,60.00,Saturday
16,4645117.300446391
469,4680206.684963395
518,0.0
2,5, 1, 5, 0,21, 0.00,60.00,Saturday
16,4645507.126514367
469,7111391.007461807
518,0.0
2,5, 1, 5, 0,22, 0.00,60.00,Saturday
16,2319909.62366842
469,7623788.826685861
518,0.0
2,5, 1, 5, 0,23, 0.00,60.00,Saturday
16,4007012.118520921
469,6438146.351713354
518,0.0
2,5, 1, 5, 0,24, 0.00,60.00,Saturday
16,4614758.5686226245
469,6760005.647162269
518,0.0
3,5, 1, 5, 0,Saturday
7,-4.088541666666665,-5.5, 7,60,-2.8,13,60
8,-7.080208333333332,-7.45, 1,15,-6.7, 1,60
9,-5.141229228510597,-6.135298049949361, 7,60,-4.298956651781032,13,60
10,14.5703125,0.0, 1,15,65.0,13,30
11,132.4921875,0.0, 1,15,603.0,13,30
12,171.49660012976298,0.8835410953785034, 1,45,340.35825202416595,24,60
13,-20.001856138640335,-60.257633494339274, 1,45,14.82458830946985,13,45
993,33651080.296397634,0.0, 1,15,2753831.8532925765,10,60
2,6, 1, 6, 0, 1, 0.00,60.00,Sunday
16,1712339.9184327582
469,7017933.578081882
518,0.0
2,6, 1, 6, 0, 2, 0.00,60.00,Sunday
16,1712339.9184327582
469,7266666.565253705
518,0.0
2,6, 1, 6, 0, 3, 0.00,60.00,Sunday
16,4367000.148748882
469,7477987.00848625
518,0.0
2,6, 1, 6, 0, 4, 0.00,60.00,Sunday
16,1712339.9184327582
469,7645032.675775889
518,0.0
2,6, 1, 6, 0, 5, 0.00,60.00,Sunday
16,1712339.9184327582
469,7804937.553110684
518,0.0
2,6, 1, 6, 0, 6, 0.00,60.00,Sunday
16,4366582.0252703
469,7930519.454111356
518,0.0
2,6, 1, 6, 0, 7, 0.00,60.00,Sunday
16,1712339.9184327582
469,9697450.7242204
518,0.0
2,6, 1, 6, 0, 8, 0.00,60.00,Sunday
16,4614185.065135281
469,21109854.29178466
518,0.0
2,6, 1, 6, 0, 9, 0.00,60.00,Sunday
16,4780752.065385701
469,19692760.85299014
518,0.0
2,6, 1, 6, 0,10, 0.00,60.00,Sunday
16,4780830.242162409
469,18252481.121439382
518,0.0
2,6, 1, 6, 0,11, 0.00,60.00,Sunday
16,1712339.9184327582
469,17029278.399004422
518,0.0
2,6, 1, 6, 0,12, 0.00,60.00,Sunday
16,4441914.094294018
469,15834486.860032136
518,0.0
2,6, 1, 6, 0,13, 0.00,60.00,Sunday
16,1712339.9184327582
469,15305642.489672126
518,0.0
2,6, 1, 6, 0,14, 0.00,60.00,Sunday
16,4442240.05638722
469,15181580.275747536
518,0.0
2,6, 1, 6, 0,15, 0.00,60.00,Sunday
16,1712339.9184327582
469,14887439.384730587
518,0.0
2,6, 1, 6, 0,16, 0.00,60.00,Sunday
16,3962828.116546492
469,15166171.927912187
518,0.0
2,6, 1, 6, 0,17, 0.00,60.00,Sunday
16,2191375.050100829
469,15576099.464017138
518,0.0
2,6, 1, 6, 0,18, 0.00,60.00,Sunday
16,4645398.783759241
469,15532773.083411312
518,0.0
2,6, 1, 6, 0,19, 0.00,60.00,Sunday
16,3230718.163055226
469,15343701.05525935
518,0.0
2,6, 1, 6, 0,20, 0.00,60.00,Sunday
16,3126642.400025988
469,3996830.770360222
518,0.0
2,6, 1, 6, 0,21, 0.00,60.00,Sunday
16,4645428.595437961
469,6247302.386693917
518,0.0
2,6, 1, 6, 0,22, 0.00,60.00,Sunday
16,4614989.440401352
469,6739066.4577455465
518,0.0
2,6, 1, 6, 0,23, 0.00,60.00,Sunday
16,3233609.223512084
469,5597136.129895221
518,0.0
2,6, 1, 6, 0,24, 0.00,60.00,Sunday
16,3093041.869358262
469,5871403.2810405
518,0.0
3,6, 1, 6, 0,Sunday
7,-3.4229166666666675,-4.6, 7,60,-2.4,19,60
8,-4.572395833333333,-7.1, 1,15,-3.0,24,60
9,-3.8650041755420497,-4.887844760743663, 2,60,-2.6504321491632616,24,60
10,16.927083333333332,0.0, 1,15,89.0,12,30
11,4.8203125,0.0, 1,15,29.0,15,30
12,171.39382734271808,0.676999179191866, 1,45,340.21418969258576,24,60
13,-19.90459616452433,-60.14617945944964, 1,45,14.937429352245028,13,45
993,33426086.98019141,0.0, 1,15,2612384.569771734,22,45
2,7, 1, 7, 0, 1, 0.00,60.00,Monday
16,4366995.530688309
469,6101276.993478825
518,0.0
2,7, 1, 7, 0, 2, 0.00,60.00,Monday
16,1712339.9184327582
469,6481996.516113903
518,0.0
2,7, 1, 7, 0, 3, 0.00,60.00,Monday
16,1712339.9184327582
469,7089898.444956861
518,0.0
2,7, 1, 7, 0, 4, 0.00,60.00,Monday
16,1712339.9184327582
469,7776883.217742154
518,0.0
2,7, 1, 7, 0, 5, 0.00,60.00,Monday
16,4366641.52940935
469,8587445.295052826
518,0.0
2,7, 1, 7, 0, 6, 0.00,60.00,Monday
16,1712339.9184327582
469,9260865.284056306
518,0.0
2,7, 1, 7, 0, 7, 0.00,60.00,Monday
16,4614713.662806724
469,12179725.567846391
518,0.0
2,7, 1, 7, 0, 8, 0.00,60.00,Monday
16,1712339.9184327582
469,23998669.59900052
518,0.0
2,7, 1, 7, 0, 9, 0.00,60.00,Monday
16,4781295.290553858
469,21880684.769878756
518,0.0
2,7, 1, 7, 0,10, 0.00,60.00,Monday
16,4780785.588812546
469,18288910.33142429
518,0.0
2,7, 1, 7, 0,11, 0.00,60.00,Monday
16,4441728.354946674
469,15166531.172508713
518,0.0
2,7, 1, 7, 0,12, 0.00,60.00,Monday
16,1712339.9184327582
469,12273840.36757828
518,0.0
2,7, 1, 7, 0,13, 0.00,60.00,Monday
16,4442263.757443266
469,10290849.347611286
518,0.0
2,7, 1, 7, 0,14, 0.00,60.00,Monday
16,1712339.9184327582
469,9054727.614510594
518,0.0
2,7, 1, 7, 0,15, 0.00,60.00,Monday
16,1712339.9184327582
469,9220727.191495096
518,0.0
2,7, 1, 7, 0,16, 0.00,60.00,Monday
16,4442126.936921335
469,11337868.869794682
518,0.0
2,7, 1, 7, 0,17, 0.00,60.00,Monday
16,1712339.9184327582
469,13971086.888726242
518,0.0
2,7, 1, 7, 0,18, 0.00,60.00,Monday
16,4645533.852462541
469,14902100.997039555
518,0.0
2,7, 1, 7, 0,19, 0.00,60.00,Monday
16,4645981.037402855
469,15216780.933109079
518,0.0
2,7, 1, 7, 0,20, 0.00,60.00,Monday
16,4645890.178750937
469,4270125.377289998
518,0.0
2,7, 1, 7, 0,21, 0.00,60.00,Monday
16,1712339.9184327582
469,6535659.11509442
518,0.0
2,7, 1, 7, 0,22, 0.00,60.00,Monday
16,4614581.179924012
469,6972504.785564024
518,0.0
2,7, 1, 7, 0,23, 0.00,60.00,Monday
16,4614759.124340052
469,5841042.958766334
518,0.0
2,7, 1, 7, 0,24, 0.00,60.00,Monday
16,4167175.136073066
469,6155625.935988658
518,0.0
3,7, 1, 7, 0,Monday
7,-5.505729166666664,-11.1, 7,60,-2.3,24,60
8,-6.389583333333333,-12.1, 7,60,-2.9, 1,60
9,-5.813797856992925,-11.366139782034363, 7,60,-2.600129425188394, 1,60
10,18.200520833333332,0.0, 1,15,84.0,12,30
11,80.8359375,0.0, 1,15,390.0,13,30
12,171.29259514926343,0.4747425056558858, 1,45,340.0772010768144,24,60
13,-19.800915512093123,-60.02709001319141, 1,45,15.057526730624629,13,45
993,35637941.07222922,0.0, 1,15,2688310.478778904, 9,15
2,8, 1, 8, 0, 1, 0.00,60.00,Tuesday
16,2120806.1766634667
469,6453465.051225889
518,0.0
2,8, 1, 8, 0, 2, 0.00,60.00,Tuesday
16,1712339.9184327582
469,6703019.066015821
518,0.0
2,8, 1, 8, 0, 3, 0.00,60.00,Tuesday
16,1712339.9184327582
469,6923476.705692148
518,0.0
2,8, 1, 8, 0, 4, 0.00,60.00,Tuesday
16,4367039.3106871685
469,7181356.030865182
518,0.0
2,8, 1, 8, 0, 5, 0.00,60.00,Tuesday
16,1712339.9184327582
469,7353140.386609588
518,0.0
2,8, 1, 8, 0, 6, 0.00,60.00,Tuesday
16,1712339.9184327582
469,7496055.839090845
518,0.0
2,8, 1, 8, 0, 7, 0.00,60.00,Tuesday
16,4614331.734273058
469,9087835.011483138
518,0.0
2,8, 1, 8, 0, 8, 0.00,60.00,Tuesday
16,4615019.289253833
469,20379037.226222977
518,0.0
2,8, 1, 8, 0, 9, 0.00,60.00,Tuesday
16,4598545.135257837
469,18685948.789323807
518,0.0
2,8, 1, 8, 0,10, 0.00,60.00,Tuesday
16,3877769.91173267
469,17217619.760472745
518,0.0
2,8, 1, 8, 0,11, 0.00,60.00,Tuesday
16,2676231.3394048857
469,16252026.417499367
518,0.0
2,8, 1, 8, 0,12, 0.00,60.00,Tuesday
16,1712339.9184327582
469,15567808.964651912
518,0.0
2,8, 1, 8, 0,13, 0.00,60.00,Tuesday
16,4441888.53610248
469,15132696.39475755
518,0.0
2,8, 1, 8, 0,14, 0.00,60.00,Tuesday
16,1712339.9184327582
469,14971877.008492615
518,0.0
2,8, 1, 8, 0,15, 0.00,60.00,Tuesday
16,4442242.681074907
469,14745880.8750077
518,0.0
2,8, 1, 8, 0,16, 0.00,60.00,Tuesday
16,1712339.9184327582
469,14655804.109663153
518,0.0
2,8, 1, 8, 0,17, 0.00,60.00,Tuesday
16,4006695.579481802
469,14687854.690165333
518,0.0
2,8, 1, 8, 0,18, 0.00,60.00,Tuesday
16,2180673.2819414726
469,14507497.156516265
518,0.0
2,8, 1, 8, 0,19, 0.00,60.00,Tuesday
16,4645248.069969512
469,14245871.143933844
518,0.0
2,8, 1, 8, 0,20, 0.00,60.00,Tuesday
16,4645416.94237405
469,2724191.799385563
518,0.0
2,8, 1, 8, 0,21, 0.00,60.00,Tuesday
16,4645786.792469229
469,4460593.007347487
518,0.0
2,8, 1, 8, 0,22, 0.00,60.00,Tuesday
16,1712339.9184327582
469,4554065.127444854
518,0.0
2,8, 1, 8, 0,23, 0.00,60.00,Tuesday
16,4614566.193719327
469,3848371.5662054364
518,0.0
2,8, 1, 8, 0,24, 0.00,60.00,Tuesday
16,4614778.981724125
469,4117606.255557052
518,0.0
3,8, 1, 8, 0,Tuesday
7,0.33385416666666695,-2.25, 1,15,4.0,23,60
8,-0.19583404686953979,-3.6, 7,60,4.0,23,60
9,0.1188314416176298,-2.7575005134912995, 7,60,4.0,23,60
10,6.432291666666667,0.0, 1,15,34.0,12,30
11,0.3151041666666667,0.0, 1,15,7.0,10,30
12,171.19300465716188,0.2770419467789127, 1,45,339.9474288361953,24,60
13,-19.69085628613162,-59.900432936670626, 1,45,15.184830734836614,13,45
993,33938641.13508512,0.0, 1,30,2612411.433738967, 8,60
2,9, 1, 9, 0, 1, 0.00,60.00,Wednesday
16,1712339.9184327582
469,4344360.820566587
518,0.0
2,9, 1, 9, 0, 2, 0.00,60.00,Wednesday
16,1712339.9184327582
469,4802472.787445825
518,0.0
2,9, 1, 9, 0, 3, 0.00,60.00,Wednesday
16,4366790.452708018
469,5331427.660825456
518,0.0
2,9, 1, 9, 0, 4, 0.00,60.00,Wednesday
16,1712339.9184327582
469,5543593.883586508
518,0.0
2,9, 1, 9, 0, 5, 0.00,60.00,Wednesday
16,1712339.9184327582
469,5416227.421299734
518,0.0
2,9, 1, 9, 0, 6, 0.00,60.00,Wednesday
16,1712339.9184327582
469,5129131.648738562
518,0.0
2,9, 1, 9, 0, 7, 0.00,60.00,Wednesday
16,4614977.737589569
469,5951219.978486105
518,0.0
2,9, 1, 9, 0, 8, 0.00,60.00,Wednesday
16,4614315.236718696
469,17099021.15552642
518,0.0
2,9, 1, 9, 0, 9, 0.00,60.00,Wednesday
16,4781296.213094761
469,15730265.398477705
518,0.0
2,9, 1, 9, 0,10, 0.00,60.00,Wednesday
16,4780785.898453575
469,13309737.558975555
518,0.0
2,9, 1, 9, 0,11, 0.00,60.00,Wednesday
16,1712339.9184327582
469,11619801.45189074
518,0.0
2,9, 1, 9, 0,12, 0.00,60.00,Wednesday
16,4441677.76416672
469,9778290.467757303
518,0.0
2,9, 1, 9, 0,13, 0.00,60.00,Wednesday
16,1712339.9184327582
469,8571809.039413035
518,0.0
2,9, 1, 9, 0,14, 0.00,60.00,Wednesday
16,1712339.9184327582
469,8914527.453539459
518,0.0
2,9, 1, 9, 0,15, 0.00,60.00,Wednesday
16,4442274.4434009
469,10012334.635562684
518,0.0
2,9, 1, 9, 0,16, 0.00,60.00,Wednesday
16,1712339.9184327582
469,10901225.686483046
518,0.0
2,9, 1, 9, 0,17, 0.00,60.00,Wednesday
16,4442200.801804099
469,11403003.541211452
518,0.0
2,9, 1, 9, 0,18, 0.00,60.00,Wednesday
16,4114363.6238854937
469,12177531.637325317
518,0.0
2,9, 1, 9, 0,19, 0.00,60.00,Wednesday
16,2243444.4155593384
469,14206962.733524095
518,0.0
2,9, 1, 9, 0,20, 0.00,60.00,Wednesday
16,4645001.1848481195
469,1492472.335502862
518,0.0
2,9, 1, 9, 0,21, 0.00,60.00,Wednesday
16,4645365.922199991
469,2722252.8691196227
518,0.0
2,9, 1, 9, 0,22, 0.00,60.00,Wednesday
16,4614971.288709895
469,2639657.6958016315
518,0.0
2,9, 1, 9, 0,23, 0.00,60.00,Wednesday
16,1712339.9184327582
469,2095590.094989793
518,0.0
2,9, 1, 9, 0,24, 0.00,60.00,Wednesday
16,4614320.349326074
469,2237456.183714425
518,0.0
3,9, 1, 9, 0,Wednesday
7,4.736458333333332,2.1, 3,60,7.6,23,60
8,4.126040580561692,1.9, 1,60,5.999997196412721,13,60
9,4.590807866781274,2.0999984741210938, 3,60,6.748006875248453,23,60
10,18.317708333333332,0.0, 1,15,94.0,12,30
11,18.375,0.0, 1,15,158.0,13,30
12,171.0951546233548,0.08415330395139851, 1,45,339.824999142154,24,60
13,-19.574463356569648,-59.76628024130013, 1,45,15.319288581092687,13,45
993,33650123.82696597,0.0, 1,15,2689292.914422388, 9,45
2,10, 1,10, 0, 1, 0.00,60.00,Thursday
16,1712339.9184327582
469,2762189.2581556905
518,0.0
2,10, 1,10, 0, 2, 0.00,60.00,Thursday
16,4366994.293832094
469,2868198.328255733
518,0.0
2,10, 1,10, 0, 3, 0.00,60.00,Thursday
16,1712339.9184327582
469,3579453.5854634363
518,0.0
2,10, 1,10, 0, 4, 0.00,60.00,Thursday
16,1712339.9184327582
469,4061517.4015293494
518,0.0
2,10, 1,10, 0, 5, 0.00,60.00,Thursday
16,1712339.9184327582
469,4237126.704646931
518,0.0
2,10, 1,10, 0, 6, 0.00,60.00,Thursday
16,4366659.253076667
469,4350088.606427116
518,0.0
2,10, 1,10, 0, 7, 0.00,60.00,Thursday
16,1942447.6023407658
469,5270694.490193302
518,0.0
2,10, 1,10, 0, 8, 0.00,60.00,Thursday
16,4383849.609724203
469,16222349.140649885
518,0.0
2,10, 1,10, 0, 9, 0.00,60.00,Thursday
16,4781521.939470358
469,15317433.260881618
518,0.0
2,10, 1,10, 0,10, 0.00,60.00,Thursday
16,4781375.23928394
469,12455386.249273773
518,0.0
2,10, 1,10, 0,11, 0.00,60.00,Thursday
16,3143665.3181236605
469,10223157.931999967
518,0.0
2,10, 1,10, 0,12, 0.00,60.00,Thursday
16,3010313.0985789513
469,8979946.70839011
518,0.0
2,10, 1,10, 0,13, 0.00,60.00,Thursday
16,1712339.9184327582
469,8233693.646622421
518,0.0
2,10, 1,10, 0,14, 0.00,60.00,Thursday
16,4442114.568803205
469,8254599.65289796
518,0.0
2,10, 1,10, 0,15, 0.00,60.00,Thursday
16,1712339.9184327582
469,9180494.285772394
518,0.0
2,10, 1,10, 0,16, 0.00,60.00,Thursday
16,4442222.684626027
469,10427208.336129513
518,0.0
2,10, 1,10, 0,17, 0.00,60.00,Thursday
16,1712339.9184327582
469,11164930.624475842
518,0.0
2,10, 1,10, 0,18, 0.00,60.00,Thursday
16,4645459.567381906
469,11780377.36293599
518,0.0
2,10, 1,10, 0,19, 0.00,60.00,Thursday
16,4645996.908882236
469,12002791.999656687
518,0.0
2,10, 1,10, 0,20, 0.00,60.00,Thursday
16,1712339.9184327582
469,1640346.8297920781
518,0.0
2,10, 1,10, 0,21, 0.00,60.00,Thursday
16,4645906.032113925
469,3509600.9506612453
518,0.0
2,10, 1,10, 0,22, 0.00,60.00,Thursday
16,4614489.407319044
469,3944999.36367049
518,0.0
2,10, 1,10, 0,23, 0.00,60.00,Thursday
16,4614899.539753372
469,3271281.9348492865
518,0.0
2,10, 1,10, 0,24, 0.00,60.00,Thursday
16,1712339.9184327582
469,3286991.198686204
518,0.0
3,10, 1,10, 0,Thursday
7,4.616666666666666,2.7,23,60,7.5249999999999995, 1,15
8,2.0005208333333333,0.2, 7,60,5.3999999999999995, 1,15
9,3.6733112254525153,2.509699567522247,23,60,6.459245160919081, 1,15
10,18.4375,0.0, 1,15,91.0,13,30
11,35.565104166666664,0.0, 1,15,199.0,10,30
12,171.00130137365522,0.1036831833804491, 1,45,339.71002178991677,24,60
13,-19.451784315637955,-59.624707977317236, 1,45,15.460844461957508,13,45
993,33428534.65813709,0.0, 1,15,2762263.8189338404, 9,30
2,11, 1,11, 0, 1, 0.00,60.00,Friday
16,4366991.433061231
469,3309423.398726546
518,0.0
2,11, 1,11, 0, 2, 0.00,60.00,Friday
16,1712339.9184327582
469,3542237.929896352
518,0.0
2,11, 1,11, 0, 3, 0.00,60.00,Friday
16,1712339.9184327582
469,3879937.0125655183
518,0.0
2,11, 1,11, 0, 4, 0.00,60.00,Friday
16,2175896.7353359032
469,4287415.33305942
518,0.0
2,11, 1,11, 0, 5, 0.00,60.00,Friday
16,3903146.3216509037
469,4679480.926516505
518,0.0
2,11, 1,11, 0, 6, 0.00,60.00,Friday
16,1712339.9184327582
469,4866967.341367654
518,0.0
2,11, 1,11, 0, 7, 0.00,60.00,Friday
16,4614950.361218765
469,5840626.256962011
518,0.0
2,11, 1,11, 0, 8, 0.00,60.00,Friday
16,2886960.001068345
469,16553541.690061333
518,0.0
2,11, 1,11, 0, 9, 0.00,60.00,Friday
16,3876601.8716101972
469,15570781.810790148
518,0.0
2,11, 1,11, 0,10, 0.00,60.00,Friday
16,4444478.790682241
469,11890236.687499974
518,0.0
2,11, 1,11, 0,11, 0.00,60.00,Friday
16,4442200.017976185
469,8589430.700716576
518,0.0
2,11, 1,11, 0,12, 0.00,60.00,Friday
16,1712339.9184327582
469,6461413.160860036
518,0.0
2,11, 1,11, 0,13, 0.00,60.00,Friday
16,4441647.361286069
469,5034755.646322178
518,0.0
2,11, 1,11, 0,14, 0.00,60.00,Friday
16,1712339.9184327582
469,4811836.035342786
518,0.0
2,11, 1,11, 0,15, 0.00,60.00,Friday
16,4442003.941876167
469,5318328.843367739
518,0.0
2,11, 1,11, 0,16, 0.00,60.00,Friday
16,1712339.9184327582
469,7618159.425790734
518,0.0
2,11, 1,11, 0,17, 0.00,60.00,Friday
16,1712339.9184327582
469,10229178.254644278
518,0.0
2,11, 1,11, 0,18, 0.00,60.00,Friday
16,4645944.849303248
469,11075419.697478537
518,0.0
2,11, 1,11, 0,19, 0.00,60.00,Friday
16,4645854.057875463
469,11450518.20533358
518,0.0
2,11, 1,11, 0,20, 0.00,60.00,Friday
16,4645480.166252436
469,1542193.756598165
518,0.0
2,11, 1,11, 0,21, 0.00,60.00,Friday
16,3248672.3666811567
469,3497527.316160301
518,0.0
2,11, 1,11, 0,22, 0.00,60.00,Friday
16,3093989.1543037863
469,3980535.6170005337
518,0.0
2,11, 1,11, 0,23, 0.00,60.00,Friday
16,4614989.444325429
469,3554436.1177188577
518,0.0
2,11, 1,11, 0,24, 0.00,60.00,Friday
16,4614311.171947782
469,3779924.2291244697
518,0.0
3,11, 1,11, 0,Friday
7,3.1302083333333326,2.1,23,60,4.4,15,60
8,1.0171875000000001,0.1, 7,60,2.4, 3,60
9,2.372332722381356,1.54409270954401,23,60,3.567697330803043, 1,60
10,16.3828125,0.0, 1,15,76.0,13,30
11,100.76822916666667,0.0, 1,15,475.0,13,30
12,170.9110217294324,0.2862432384600441, 1,45,339.602590374645,24,60
13,-19.322869432033745,-59.47579603669277, 1,45,15.609439599683608,13,45